<?xml version="1.0" ?> 
<!-- 
# vtk DataFile Version 3.0
-->
<VTKFile type="UnstructuredGrid" version="0.1" compressor="vtkZLibDataCompressor" byte_order="LittleEndian">
  <UnstructuredGrid>
    <FieldData>
      <DataArray type="Float64" Name="TIME" NumberOfTuples="1" format="ascii">
3.000000000000000e-01 
      </DataArray>
    </FieldData>

    <Piece NumberOfPoints="32" NumberOfCells="8" >
      <Points>
        <DataArray type="Float64" NumberOfComponents="3" format="ascii">
-3.000000000000000e-01 3.000000000000001e-01 0.000000000000000e+00
-5.000000000000000e-01 3.000000000000000e-01 0.000000000000000e+00
-5.000000000000000e-01 9.999999999999998e-02 0.000000000000000e+00
-3.000000000000000e-01 1.000000000000000e-01 0.000000000000000e+00
-3.000000000000000e-01 1.000000000000000e-01 0.000000000000000e+00
-5.000000000000000e-01 9.999999999999998e-02 0.000000000000000e+00
-5.000000000000000e-01 -1.000000000000001e-01 0.000000000000000e+00
-3.000000000000002e-01 -1.000000000000000e-01 0.000000000000000e+00
1.000000000000000e-01 -1.000000000000000e-01 0.000000000000000e+00
-9.999999999999999e-02 -1.000000000000001e-01 0.000000000000000e+00
-1.000000000000000e-01 -3.000000000000000e-01 0.000000000000000e+00
1.000000000000001e-01 -3.000000000000001e-01 0.000000000000000e+00
-9.999999999999999e-02 -1.000000000000001e-01 0.000000000000000e+00
-3.000000000000002e-01 -1.000000000000000e-01 0.000000000000000e+00
-3.000000000000000e-01 -3.000000000000000e-01 0.000000000000000e+00
-1.000000000000000e-01 -3.000000000000000e-01 0.000000000000000e+00
-3.000000000000002e-01 -1.000000000000000e-01 0.000000000000000e+00
-5.000000000000000e-01 -1.000000000000001e-01 0.000000000000000e+00
-5.000000000000000e-01 -3.000000000000000e-01 0.000000000000000e+00
-3.000000000000000e-01 -3.000000000000000e-01 0.000000000000000e+00
1.000000000000001e-01 -3.000000000000001e-01 0.000000000000000e+00
-1.000000000000000e-01 -3.000000000000000e-01 0.000000000000000e+00
-9.999999999999998e-02 -5.000000000000000e-01 0.000000000000000e+00
1.000000000000001e-01 -5.000000000000000e-01 0.000000000000000e+00
-1.000000000000000e-01 -3.000000000000000e-01 0.000000000000000e+00
-3.000000000000000e-01 -3.000000000000000e-01 0.000000000000000e+00
-3.000000000000000e-01 -5.000000000000000e-01 0.000000000000000e+00
-9.999999999999998e-02 -5.000000000000000e-01 0.000000000000000e+00
-3.000000000000000e-01 -3.000000000000000e-01 0.000000000000000e+00
-5.000000000000000e-01 -3.000000000000000e-01 0.000000000000000e+00
-5.000000000000000e-01 -5.000000000000000e-01 0.000000000000000e+00
-3.000000000000000e-01 -5.000000000000000e-01 0.000000000000000e+00
        </DataArray>
      </Points>

      <Cells>
        <DataArray type="Int32" Name="connectivity" format="ascii">
0 1 2 3 4 5 6 7 8 9 10 11 12 13 14 15 16 17 18 19 20 21 22 23 24 25 26 27 28 29 30 31 
        </DataArray>
        <DataArray type="Int32" Name="offsets" format="ascii">
4 8 12 16 20 24 28 32 
        </DataArray>
        <DataArray type="UInt8" Name="types" format="ascii">
9 9 9 9 9 9 9 9 
        </DataArray>
      </Cells>

  <PointData>
        <DataArray type="Float64" Name="ale-displacement" NumberOfComponents="2" format="ascii">
-1.104768966547012e-02 4.410318488629219e-03
-1.401210170254566e-02 4.573315372546892e-03
-1.414338375757126e-02 1.528883656823748e-03
-1.119184979947704e-02 1.471641655889011e-03
-1.119184979947704e-02 1.471641655889011e-03
-1.414338375757126e-02 1.528883656823748e-03
-1.414338375757124e-02 -1.528883656823663e-03
-1.119184979947706e-02 -1.471641655888936e-03
-5.584350038615657e-03 -1.330866254432239e-03
-8.340994778150984e-03 -1.421281951797553e-03
-8.171752274008725e-03 -4.248733811254404e-03
-5.381698167385316e-03 -4.043976371471664e-03
-8.340994778150984e-03 -1.421281951797553e-03
-1.119184979947706e-02 -1.471641655888936e-03
-1.104768966547012e-02 -4.410318488629195e-03
-8.171752274008725e-03 -4.248733811254404e-03
-1.119184979947706e-02 -1.471641655888936e-03
-1.414338375757124e-02 -1.528883656823663e-03
-1.401210170254562e-02 -4.573315372546825e-03
-1.104768966547012e-02 -4.410318488629195e-03
-5.381698167385316e-03 -4.043976371471664e-03
-8.171752274008725e-03 -4.248733811254404e-03
-7.895183044372608e-03 -7.069489324402852e-03
-5.026122586377339e-03 -6.708925744734698e-03
-8.171752274008725e-03 -4.248733811254404e-03
-1.104768966547012e-02 -4.410318488629195e-03
-1.080784181091763e-02 -7.331493889580450e-03
-7.895183044372608e-03 -7.069489324402852e-03
-1.104768966547012e-02 -4.410318488629195e-03
-1.401210170254562e-02 -4.573315372546825e-03
-1.378338671936372e-02 -7.598223043213429e-03
-1.080784181091763e-02 -7.331493889580450e-03
        </DataArray>
        <DataArray type="Float64" Name="det_def_grad" format="ascii">
1.029465180571551e+00
1.030221042415471e+00
1.030238396895170e+00
1.029424278638572e+00
1.029424278638572e+00
1.030238396895170e+00
1.030238396895169e+00
1.029424278638572e+00
1.027161113838908e+00
1.028392654042389e+00
1.028486534767769e+00
1.027694630606448e+00
1.028392654042389e+00
1.029424278638572e+00
1.029465180571551e+00
1.028486534767769e+00
1.029424278638572e+00
1.030238396895169e+00
1.030221042415471e+00
1.029465180571551e+00
1.027694630606448e+00
1.028486534767769e+00
1.028764088121722e+00
1.027339869756273e+00
1.028486534767769e+00
1.029465180571551e+00
1.029542977334475e+00
1.028764088121722e+00
1.029465180571551e+00
1.030221042415471e+00
1.030228806734860e+00
1.029542977334475e+00
        </DataArray>
        <DataArray type="Float64" Name="phi_1" format="ascii">
1.404635542083076e-02
1.755587852793716e-02
1.755587852793716e-02
1.404677276173596e-02
1.404677276173596e-02
1.755587852793716e-02
1.755587852793716e-02
1.404677276173596e-02
7.027049501569644e-03
1.053721074992110e-02
1.053654815705176e-02
7.025900421145505e-03
1.053721074992110e-02
1.404677276173596e-02
1.404635542083076e-02
1.053654815705176e-02
1.404677276173596e-02
1.755587852793716e-02
1.755587852793716e-02
1.404635542083076e-02
7.025900421145505e-03
1.053654815705176e-02
1.053609701295120e-02
7.025316983545436e-03
1.053654815705176e-02
1.404635542083076e-02
1.404598962529870e-02
1.053609701295120e-02
1.404635542083076e-02
1.755587852793716e-02
1.755587852793716e-02
1.404598962529870e-02
        </DataArray>
        <DataArray type="Float64" Name="phi_2" format="ascii">
1.280008173787566e+00
1.300000000000000e+00
1.300000000000000e+00
1.280010549760696e+00
1.280010549760696e+00
1.300000000000000e+00
1.300000000000000e+00
1.280010549760696e+00
1.240025309256938e+00
1.260019327547634e+00
1.260015557728302e+00
1.240018773689250e+00
1.260019327547634e+00
1.280010549760696e+00
1.280008173787566e+00
1.260015557728302e+00
1.280010549760696e+00
1.300000000000000e+00
1.300000000000000e+00
1.280008173787566e+00
1.240018773689250e+00
1.260015557728302e+00
1.260012990996329e+00
1.240015458531230e+00
1.260015557728302e+00
1.280008173787566e+00
1.280006090925393e+00
1.260012990996329e+00
1.280008173787566e+00
1.300000000000000e+00
1.300000000000000e+00
1.280006090925393e+00
        </DataArray>
        <DataArray type="Float64" Name="porosity" format="ascii">
7.065917550281414e-01
7.067561283341895e-01
7.067598996508058e-01
7.065828516492433e-01
7.065828516492433e-01
7.067598996508058e-01
7.067598996508057e-01
7.065828516492433e-01
7.060893042395784e-01
7.063581359400244e-01
7.063786057976704e-01
7.062058490258383e-01
7.063581359400244e-01
7.065828516492433e-01
7.065917550281414e-01
7.063786057976704e-01
7.065828516492433e-01
7.067598996508057e-01
7.067561283341897e-01
7.065917550281414e-01
7.062058490258383e-01
7.063786057976704e-01
7.064391036872684e-01
7.061283220719137e-01
7.063786057976704e-01
7.065917550281414e-01
7.066086880881048e-01
7.064391036872684e-01
7.065917550281414e-01
7.067561283341897e-01
7.067578159928756e-01
7.066086880881048e-01
        </DataArray>
        <DataArray type="Float64" Name="pressure_1" format="ascii">
1.404635542083076e-02
1.755587852793716e-02
1.755587852793716e-02
1.404677276173596e-02
1.404677276173596e-02
1.755587852793716e-02
1.755587852793716e-02
1.404677276173596e-02
7.027049501569644e-03
1.053721074992110e-02
1.053654815705176e-02
7.025900421145505e-03
1.053721074992110e-02
1.404677276173596e-02
1.404635542083076e-02
1.053654815705176e-02
1.404677276173596e-02
1.755587852793716e-02
1.755587852793716e-02
1.404635542083076e-02
7.025900421145505e-03
1.053654815705176e-02
1.053609701295120e-02
7.025316983545436e-03
1.053654815705176e-02
1.404635542083076e-02
1.404598962529870e-02
1.053609701295120e-02
1.404635542083076e-02
1.755587852793716e-02
1.755587852793716e-02
1.404598962529870e-02
        </DataArray>
        <DataArray type="Float64" Name="pressure_2" format="ascii">
1.280008173787566e+00
1.300000000000000e+00
1.300000000000000e+00
1.280010549760696e+00
1.280010549760696e+00
1.300000000000000e+00
1.300000000000000e+00
1.280010549760696e+00
1.240025309256938e+00
1.260019327547634e+00
1.260015557728302e+00
1.240018773689250e+00
1.260019327547634e+00
1.280010549760696e+00
1.280008173787566e+00
1.260015557728302e+00
1.280010549760696e+00
1.300000000000000e+00
1.300000000000000e+00
1.280008173787566e+00
1.240018773689250e+00
1.260015557728302e+00
1.260012990996329e+00
1.240015458531230e+00
1.260015557728302e+00
1.280008173787566e+00
1.280006090925393e+00
1.260012990996329e+00
1.280008173787566e+00
1.300000000000000e+00
1.300000000000000e+00
1.280006090925393e+00
        </DataArray>
        <DataArray type="Float64" Name="saturation_1" format="ascii">
1.000000000000000e+00
1.000000000000000e+00
1.000000000000000e+00
1.000000000000000e+00
1.000000000000000e+00
1.000000000000000e+00
1.000000000000000e+00
1.000000000000000e+00
1.000000000000000e+00
1.000000000000000e+00
1.000000000000000e+00
1.000000000000000e+00
1.000000000000000e+00
1.000000000000000e+00
1.000000000000000e+00
1.000000000000000e+00
1.000000000000000e+00
1.000000000000000e+00
1.000000000000000e+00
1.000000000000000e+00
1.000000000000000e+00
1.000000000000000e+00
1.000000000000000e+00
1.000000000000000e+00
1.000000000000000e+00
1.000000000000000e+00
1.000000000000000e+00
1.000000000000000e+00
1.000000000000000e+00
1.000000000000000e+00
1.000000000000000e+00
1.000000000000000e+00
        </DataArray>
        <DataArray type="Float64" Name="saturation_2" format="ascii">
-1.000000000000000e+00
-1.000000000000000e+00
-1.000000000000000e+00
-1.000000000000000e+00
-1.000000000000000e+00
-1.000000000000000e+00
-1.000000000000000e+00
-1.000000000000000e+00
-1.000000000000000e+00
-1.000000000000000e+00
-1.000000000000000e+00
-1.000000000000000e+00
-1.000000000000000e+00
-1.000000000000000e+00
-1.000000000000000e+00
-1.000000000000000e+00
-1.000000000000000e+00
-1.000000000000000e+00
-1.000000000000000e+00
-1.000000000000000e+00
-1.000000000000000e+00
-1.000000000000000e+00
-1.000000000000000e+00
-1.000000000000000e+00
-1.000000000000000e+00
-1.000000000000000e+00
-1.000000000000000e+00
-1.000000000000000e+00
-1.000000000000000e+00
-1.000000000000000e+00
-1.000000000000000e+00
-1.000000000000000e+00
        </DataArray>
        <DataArray type="Float64" Name="solidpressure" format="ascii">
1.698044491184445e-01
1.752792334803684e-01
1.752777962737305e-01
1.698084573679853e-01
1.698084573679853e-01
1.752777962737305e-01
1.752777962737305e-01
1.698084573679853e-01
1.589136181838238e-01
1.643544794065173e-01
1.643458314808985e-01
1.588690823644115e-01
1.643544794065173e-01
1.698084573679853e-01
1.698044491184445e-01
1.643458314808985e-01
1.698084573679853e-01
1.752777962737305e-01
1.752792334803684e-01
1.698044491184445e-01
1.588690823644115e-01
1.643458314808985e-01
1.643226508444894e-01
1.588965835427014e-01
1.643458314808985e-01
1.698044491184445e-01
1.697975010117230e-01
1.643226508444894e-01
1.698044491184445e-01
1.752792334803684e-01
1.752785903180224e-01
1.697975010117230e-01
        </DataArray>
        <DataArray type="Float64" Name="volfrac_blood_lung" format="ascii">
9.913260199867990e-02
9.911077573357623e-02
9.911027484743526e-02
9.913378386570593e-02
9.913378386570593e-02
9.911027484743526e-02
9.911027484743526e-02
9.913378386570593e-02
9.919926065176664e-02
9.916360687364295e-02
9.916089107834331e-02
9.918380745496122e-02
9.916360687364295e-02
9.913378386570593e-02
9.913260199867990e-02
9.916089107834331e-02
9.913378386570593e-02
9.911027484743526e-02
9.911077573357621e-02
9.913260199867990e-02
9.918380745496122e-02
9.916089107834331e-02
9.915286379701672e-02
9.919408580422397e-02
9.916089107834331e-02
9.913260199867990e-02
9.913035418131649e-02
9.915286379701672e-02
9.913260199867990e-02
9.911077573357621e-02
9.911055160415658e-02
9.913035418131649e-02
        </DataArray>
  </PointData>
  <CellData>
        <DataArray type="Float64" Name="Owner" format="ascii">
2.000000000000000e+00
2.000000000000000e+00
2.000000000000000e+00
2.000000000000000e+00
2.000000000000000e+00
2.000000000000000e+00
2.000000000000000e+00
2.000000000000000e+00
        </DataArray>
        <DataArray type="Float64" Name="velocity_1" NumberOfComponents="2" format="ascii">
1.957353988303587e+03 -1.210329708637520e+00
1.957292715592220e+03 -5.889117183277212e-13
1.960990515708128e+03 1.291598849869137e+00
1.959095718097853e+03 1.210802373470972e+00
1.957353988303587e+03 1.210329708639287e+00
1.960528104232889e+03 2.766113056205268e+00
1.958830114113230e+03 2.263200146050787e+00
1.957474754189996e+03 2.154839845679021e+00
        </DataArray>
        <DataArray type="Float64" Name="velocity_2" NumberOfComponents="2" format="ascii">
3.726172604924458e+01 -2.179002443389262e-02
3.726070171869488e+01 -6.279043040721688e-14
3.728418906008690e+01 2.391253160370625e-02
3.727145227452514e+01 2.208215561142433e-02
3.726172604924450e+01 2.179002443393478e-02
3.727905411482745e+01 5.126095916555688e-02
3.726895433542857e+01 4.113111241842315e-02
3.726372731890177e+01 3.850903933691356e-02
        </DataArray>
      </CellData>

    </Piece>
  </UnstructuredGrid>
</VTKFile>
