<?xml version="1.0" ?> 
<!-- 
# vtk DataFile Version 3.0
-->
<VTKFile type="UnstructuredGrid" version="0.1" compressor="vtkZLibDataCompressor" byte_order="LittleEndian">
  <UnstructuredGrid>
    <FieldData>
      <DataArray type="Float64" Name="TIME" NumberOfTuples="1" format="ascii">
3.000000000000000e-01 
      </DataArray>
    </FieldData>

    <Piece NumberOfPoints="44" NumberOfCells="11" >
      <Points>
        <DataArray type="Float64" NumberOfComponents="3" format="ascii">
5.000000000000000e-01 3.000000000000000e-01 0.000000000000000e+00
2.999999999999999e-01 3.000000000000000e-01 0.000000000000000e+00
3.000000000000000e-01 1.000000000000001e-01 0.000000000000000e+00
5.000000000000000e-01 1.000000000000001e-01 0.000000000000000e+00
2.999999999999999e-01 3.000000000000000e-01 0.000000000000000e+00
1.000000000000000e-01 3.000000000000000e-01 0.000000000000000e+00
9.999999999999999e-02 1.000000000000000e-01 0.000000000000000e+00
3.000000000000000e-01 1.000000000000001e-01 0.000000000000000e+00
1.000000000000000e-01 3.000000000000000e-01 0.000000000000000e+00
-1.000000000000001e-01 3.000000000000000e-01 0.000000000000000e+00
-1.000000000000001e-01 1.000000000000000e-01 0.000000000000000e+00
9.999999999999999e-02 1.000000000000000e-01 0.000000000000000e+00
5.000000000000000e-01 1.000000000000001e-01 0.000000000000000e+00
3.000000000000000e-01 1.000000000000001e-01 0.000000000000000e+00
3.000000000000000e-01 -1.000000000000000e-01 0.000000000000000e+00
5.000000000000000e-01 -9.999999999999998e-02 0.000000000000000e+00
3.000000000000000e-01 1.000000000000001e-01 0.000000000000000e+00
9.999999999999999e-02 1.000000000000000e-01 0.000000000000000e+00
1.000000000000000e-01 -1.000000000000000e-01 0.000000000000000e+00
3.000000000000000e-01 -1.000000000000000e-01 0.000000000000000e+00
9.999999999999999e-02 1.000000000000000e-01 0.000000000000000e+00
-1.000000000000001e-01 1.000000000000000e-01 0.000000000000000e+00
-9.999999999999999e-02 -1.000000000000001e-01 0.000000000000000e+00
1.000000000000000e-01 -1.000000000000000e-01 0.000000000000000e+00
-1.000000000000001e-01 1.000000000000000e-01 0.000000000000000e+00
-3.000000000000000e-01 1.000000000000000e-01 0.000000000000000e+00
-3.000000000000002e-01 -1.000000000000000e-01 0.000000000000000e+00
-9.999999999999999e-02 -1.000000000000001e-01 0.000000000000000e+00
5.000000000000000e-01 -9.999999999999998e-02 0.000000000000000e+00
3.000000000000000e-01 -1.000000000000000e-01 0.000000000000000e+00
3.000000000000000e-01 -3.000000000000000e-01 0.000000000000000e+00
5.000000000000000e-01 -3.000000000000000e-01 0.000000000000000e+00
3.000000000000000e-01 -1.000000000000000e-01 0.000000000000000e+00
1.000000000000000e-01 -1.000000000000000e-01 0.000000000000000e+00
1.000000000000001e-01 -3.000000000000001e-01 0.000000000000000e+00
3.000000000000000e-01 -3.000000000000000e-01 0.000000000000000e+00
5.000000000000000e-01 -3.000000000000000e-01 0.000000000000000e+00
3.000000000000000e-01 -3.000000000000000e-01 0.000000000000000e+00
3.000000000000000e-01 -5.000000000000000e-01 0.000000000000000e+00
5.000000000000000e-01 -5.000000000000000e-01 0.000000000000000e+00
3.000000000000000e-01 -3.000000000000000e-01 0.000000000000000e+00
1.000000000000001e-01 -3.000000000000001e-01 0.000000000000000e+00
1.000000000000001e-01 -5.000000000000000e-01 0.000000000000000e+00
3.000000000000000e-01 -5.000000000000000e-01 0.000000000000000e+00
        </DataArray>
      </Points>

      <Cells>
        <DataArray type="Int32" Name="connectivity" format="ascii">
0 1 2 3 4 5 6 7 8 9 10 11 12 13 14 15 16 17 18 19 20 21 22 23 24 25 26 27 28 29 30 31 32 33 34 35 36 37 38 39 40 41 42 43 
        </DataArray>
        <DataArray type="Int32" Name="offsets" format="ascii">
4 8 12 16 20 24 28 32 36 40 44 
        </DataArray>
        <DataArray type="UInt8" Name="types" format="ascii">
9 9 9 9 9 9 9 9 9 9 9 
        </DataArray>
      </Cells>

  <PointData>
        <DataArray type="Float64" Name="ale-displacement" NumberOfComponents="2" format="ascii">
0.000000000000000e+00 3.151760990533204e-03
-2.548458509283927e-03 3.608875235352328e-03
-2.924214289632810e-03 1.349109947871008e-03
0.000000000000000e+00 0.000000000000000e+00
-2.548458509283927e-03 3.608875235352328e-03
-5.381698167385318e-03 4.043976371471671e-03
-5.584350038615665e-03 1.330866254432267e-03
-2.924214289632810e-03 1.349109947871008e-03
-5.381698167385318e-03 4.043976371471671e-03
-8.171752274008693e-03 4.248733811254473e-03
-8.340994778150949e-03 1.421281951797577e-03
-5.584350038615665e-03 1.330866254432267e-03
0.000000000000000e+00 0.000000000000000e+00
-2.924214289632810e-03 1.349109947871008e-03
-2.924214289632831e-03 -1.349109947870994e-03
0.000000000000000e+00 0.000000000000000e+00
-2.924214289632810e-03 1.349109947871008e-03
-5.584350038615665e-03 1.330866254432267e-03
-5.584350038615657e-03 -1.330866254432239e-03
-2.924214289632831e-03 -1.349109947870994e-03
-5.584350038615665e-03 1.330866254432267e-03
-8.340994778150949e-03 1.421281951797577e-03
-8.340994778150984e-03 -1.421281951797553e-03
-5.584350038615657e-03 -1.330866254432239e-03
-8.340994778150949e-03 1.421281951797577e-03
-1.119184979947704e-02 1.471641655889011e-03
-1.119184979947706e-02 -1.471641655888936e-03
-8.340994778150984e-03 -1.421281951797553e-03
0.000000000000000e+00 0.000000000000000e+00
-2.924214289632831e-03 -1.349109947870994e-03
-2.548458509283927e-03 -3.608875235352307e-03
0.000000000000000e+00 -3.151760990533153e-03
-2.924214289632831e-03 -1.349109947870994e-03
-5.584350038615657e-03 -1.330866254432239e-03
-5.381698167385316e-03 -4.043976371471664e-03
-2.548458509283927e-03 -3.608875235352307e-03
0.000000000000000e+00 -3.151760990533153e-03
-2.548458509283927e-03 -3.608875235352307e-03
-2.364334301449084e-03 -6.223956793760599e-03
0.000000000000000e+00 -5.907853605019402e-03
-2.548458509283927e-03 -3.608875235352307e-03
-5.381698167385316e-03 -4.043976371471664e-03
-5.026122586377339e-03 -6.708925744734698e-03
-2.364334301449084e-03 -6.223956793760599e-03
        </DataArray>
        <DataArray type="Float64" Name="det_def_grad" format="ascii">
1.027700125556360e+00
1.025808453082398e+00
1.026532008088581e+00
1.022615679231072e+00
1.025808453082398e+00
1.027694630606448e+00
1.027161113838908e+00
1.026532008088581e+00
1.027694630606448e+00
1.028486534767769e+00
1.028392654042389e+00
1.027161113838908e+00
1.022615679231072e+00
1.026532008088581e+00
1.026532008088581e+00
1.022615679231072e+00
1.026532008088581e+00
1.027161113838908e+00
1.027161113838908e+00
1.026532008088581e+00
1.027161113838908e+00
1.028392654042389e+00
1.028392654042389e+00
1.027161113838908e+00
1.028392654042389e+00
1.029424278638572e+00
1.029424278638572e+00
1.028392654042389e+00
1.022615679231072e+00
1.026532008088581e+00
1.025808453082398e+00
1.027700125556360e+00
1.026532008088581e+00
1.027161113838908e+00
1.027694630606448e+00
1.025808453082398e+00
1.027700125556360e+00
1.025808453082398e+00
1.025806854473724e+00
1.025765042687337e+00
1.025808453082398e+00
1.027694630606448e+00
1.027339869756273e+00
1.025806854473724e+00
        </DataArray>
        <DataArray type="Float64" Name="phi_1" format="ascii">
0.000000000000000e+00
3.511590420256154e-03
3.516478374448982e-03
0.000000000000000e+00
3.511590420256154e-03
7.025900421145506e-03
7.027049501569645e-03
3.516478374448982e-03
7.025900421145506e-03
1.053654815705176e-02
1.053721074992111e-02
7.027049501569645e-03
0.000000000000000e+00
3.516478374448982e-03
3.516478374448982e-03
0.000000000000000e+00
3.516478374448982e-03
7.027049501569645e-03
7.027049501569644e-03
3.516478374448982e-03
7.027049501569645e-03
1.053721074992111e-02
1.053721074992110e-02
7.027049501569644e-03
1.053721074992111e-02
1.404677276173596e-02
1.404677276173596e-02
1.053721074992110e-02
0.000000000000000e+00
3.516478374448982e-03
3.511590420256153e-03
0.000000000000000e+00
3.516478374448982e-03
7.027049501569644e-03
7.025900421145505e-03
3.511590420256153e-03
0.000000000000000e+00
3.511590420256153e-03
3.513470116118759e-03
0.000000000000000e+00
3.511590420256153e-03
7.025900421145505e-03
7.025316983545436e-03
3.513470116118759e-03
        </DataArray>
        <DataArray type="Float64" Name="phi_2" format="ascii">
1.200000000000000e+00
1.220001538497861e+00
1.220029367445820e+00
1.200000000000000e+00
1.220001538497861e+00
1.240018773689250e+00
1.240025309256938e+00
1.220029367445820e+00
1.240018773689250e+00
1.260015557728302e+00
1.260019327547634e+00
1.240025309256938e+00
1.200000000000000e+00
1.220029367445820e+00
1.220029367445820e+00
1.200000000000000e+00
1.220029367445820e+00
1.240025309256938e+00
1.240025309256938e+00
1.220029367445820e+00
1.240025309256938e+00
1.260019327547634e+00
1.260019327547634e+00
1.240025309256938e+00
1.260019327547634e+00
1.280010549760696e+00
1.280010549760696e+00
1.260019327547634e+00
1.200000000000000e+00
1.220029367445820e+00
1.220001538497861e+00
1.200000000000000e+00
1.220029367445820e+00
1.240025309256938e+00
1.240018773689250e+00
1.220001538497861e+00
1.200000000000000e+00
1.220001538497861e+00
1.220012260531077e+00
1.200000000000000e+00
1.220001538497861e+00
1.240018773689250e+00
1.240015458531230e+00
1.220012260531077e+00
        </DataArray>
        <DataArray type="Float64" Name="porosity" format="ascii">
7.062068508312404e-01
7.057930732794543e-01
7.059514161821854e-01
7.050786329488516e-01
7.057930732794543e-01
7.062058490258382e-01
7.060893042395784e-01
7.059514161821854e-01
7.062058490258382e-01
7.063786057976703e-01
7.063581359400244e-01
7.060893042395784e-01
7.050786329488516e-01
7.059514161821854e-01
7.059514161821854e-01
7.050786329488516e-01
7.059514161821854e-01
7.060893042395784e-01
7.060893042395784e-01
7.059514161821854e-01
7.060893042395784e-01
7.063581359400244e-01
7.063581359400244e-01
7.060893042395784e-01
7.063581359400244e-01
7.065828516492433e-01
7.065828516492433e-01
7.063581359400244e-01
7.050786329488516e-01
7.059514161821854e-01
7.057930732794543e-01
7.062068508312404e-01
7.059514161821854e-01
7.060893042395784e-01
7.062058490258383e-01
7.057930732794543e-01
7.062068508312404e-01
7.057930732794543e-01
7.057928777499981e-01
7.057838327253719e-01
7.057930732794543e-01
7.062058490258383e-01
7.061283220719137e-01
7.057928777499981e-01
        </DataArray>
        <DataArray type="Float64" Name="pressure_1" format="ascii">
0.000000000000000e+00
3.511590420256154e-03
3.516478374448982e-03
0.000000000000000e+00
3.511590420256154e-03
7.025900421145506e-03
7.027049501569645e-03
3.516478374448982e-03
7.025900421145506e-03
1.053654815705176e-02
1.053721074992111e-02
7.027049501569645e-03
0.000000000000000e+00
3.516478374448982e-03
3.516478374448982e-03
0.000000000000000e+00
3.516478374448982e-03
7.027049501569645e-03
7.027049501569644e-03
3.516478374448982e-03
7.027049501569645e-03
1.053721074992111e-02
1.053721074992110e-02
7.027049501569644e-03
1.053721074992111e-02
1.404677276173596e-02
1.404677276173596e-02
1.053721074992110e-02
0.000000000000000e+00
3.516478374448982e-03
3.511590420256153e-03
0.000000000000000e+00
3.516478374448982e-03
7.027049501569644e-03
7.025900421145505e-03
3.511590420256153e-03
0.000000000000000e+00
3.511590420256153e-03
3.513470116118759e-03
0.000000000000000e+00
3.511590420256153e-03
7.025900421145505e-03
7.025316983545436e-03
3.513470116118759e-03
        </DataArray>
        <DataArray type="Float64" Name="pressure_2" format="ascii">
1.200000000000000e+00
1.220001538497861e+00
1.220029367445820e+00
1.200000000000000e+00
1.220001538497861e+00
1.240018773689250e+00
1.240025309256938e+00
1.220029367445820e+00
1.240018773689250e+00
1.260015557728302e+00
1.260019327547634e+00
1.240025309256938e+00
1.200000000000000e+00
1.220029367445820e+00
1.220029367445820e+00
1.200000000000000e+00
1.220029367445820e+00
1.240025309256938e+00
1.240025309256938e+00
1.220029367445820e+00
1.240025309256938e+00
1.260019327547634e+00
1.260019327547634e+00
1.240025309256938e+00
1.260019327547634e+00
1.280010549760696e+00
1.280010549760696e+00
1.260019327547634e+00
1.200000000000000e+00
1.220029367445820e+00
1.220001538497861e+00
1.200000000000000e+00
1.220029367445820e+00
1.240025309256938e+00
1.240018773689250e+00
1.220001538497861e+00
1.200000000000000e+00
1.220001538497861e+00
1.220012260531077e+00
1.200000000000000e+00
1.220001538497861e+00
1.240018773689250e+00
1.240015458531230e+00
1.220012260531077e+00
        </DataArray>
        <DataArray type="Float64" Name="saturation_1" format="ascii">
1.000000000000000e+00
1.000000000000000e+00
1.000000000000000e+00
1.000000000000000e+00
1.000000000000000e+00
1.000000000000000e+00
1.000000000000000e+00
1.000000000000000e+00
1.000000000000000e+00
1.000000000000000e+00
1.000000000000000e+00
1.000000000000000e+00
1.000000000000000e+00
1.000000000000000e+00
1.000000000000000e+00
1.000000000000000e+00
1.000000000000000e+00
1.000000000000000e+00
1.000000000000000e+00
1.000000000000000e+00
1.000000000000000e+00
1.000000000000000e+00
1.000000000000000e+00
1.000000000000000e+00
1.000000000000000e+00
1.000000000000000e+00
1.000000000000000e+00
1.000000000000000e+00
1.000000000000000e+00
1.000000000000000e+00
1.000000000000000e+00
1.000000000000000e+00
1.000000000000000e+00
1.000000000000000e+00
1.000000000000000e+00
1.000000000000000e+00
1.000000000000000e+00
1.000000000000000e+00
1.000000000000000e+00
1.000000000000000e+00
1.000000000000000e+00
1.000000000000000e+00
1.000000000000000e+00
1.000000000000000e+00
        </DataArray>
        <DataArray type="Float64" Name="saturation_2" format="ascii">
-1.000000000000000e+00
-1.000000000000000e+00
-1.000000000000000e+00
-1.000000000000000e+00
-1.000000000000000e+00
-1.000000000000000e+00
-1.000000000000000e+00
-1.000000000000000e+00
-1.000000000000000e+00
-1.000000000000000e+00
-1.000000000000000e+00
-1.000000000000000e+00
-1.000000000000000e+00
-1.000000000000000e+00
-1.000000000000000e+00
-1.000000000000000e+00
-1.000000000000000e+00
-1.000000000000000e+00
-1.000000000000000e+00
-1.000000000000000e+00
-1.000000000000000e+00
-1.000000000000000e+00
-1.000000000000000e+00
-1.000000000000000e+00
-1.000000000000000e+00
-1.000000000000000e+00
-1.000000000000000e+00
-1.000000000000000e+00
-1.000000000000000e+00
-1.000000000000000e+00
-1.000000000000000e+00
-1.000000000000000e+00
-1.000000000000000e+00
-1.000000000000000e+00
-1.000000000000000e+00
-1.000000000000000e+00
-1.000000000000000e+00
-1.000000000000000e+00
-1.000000000000000e+00
-1.000000000000000e+00
-1.000000000000000e+00
-1.000000000000000e+00
-1.000000000000000e+00
-1.000000000000000e+00
        </DataArray>
        <DataArray type="Float64" Name="solidpressure" format="ascii">
1.477797562424354e-01
1.534717533493394e-01
1.534221892295853e-01
1.481829073738324e-01
1.534717533493394e-01
1.588690823644115e-01
1.589136181838238e-01
1.534221892295853e-01
1.588690823644115e-01
1.643458314808985e-01
1.643544794065173e-01
1.589136181838238e-01
1.481829073738324e-01
1.534221892295853e-01
1.534221892295853e-01
1.481829073738324e-01
1.534221892295853e-01
1.589136181838238e-01
1.589136181838238e-01
1.534221892295853e-01
1.589136181838238e-01
1.643544794065173e-01
1.643544794065173e-01
1.589136181838238e-01
1.643544794065173e-01
1.698084573679853e-01
1.698084573679853e-01
1.643544794065173e-01
1.481829073738324e-01
1.534221892295853e-01
1.534717533493395e-01
1.477797562424354e-01
1.534221892295853e-01
1.589136181838238e-01
1.588690823644115e-01
1.534717533493395e-01
1.477797562424354e-01
1.534717533493395e-01
1.534747882348249e-01
1.479306884472167e-01
1.534717533493395e-01
1.588690823644115e-01
1.588965835427014e-01
1.534747882348249e-01
        </DataArray>
        <DataArray type="Float64" Name="volfrac_blood_lung" format="ascii">
9.918366624324804e-02
9.923850766778160e-02
9.921752431943419e-02
9.933251738101877e-02
9.923850766778160e-02
9.918380745496123e-02
9.919926065176665e-02
9.921752431943419e-02
9.918380745496123e-02
9.916089107834331e-02
9.916360687364296e-02
9.919926065176665e-02
9.933251738101877e-02
9.921752431943419e-02
9.921752431943419e-02
9.933251738101877e-02
9.921752431943419e-02
9.919926065176665e-02
9.919926065176664e-02
9.921752431943419e-02
9.919926065176665e-02
9.916360687364296e-02
9.916360687364295e-02
9.919926065176664e-02
9.916360687364296e-02
9.913378386570593e-02
9.913378386570593e-02
9.916360687364295e-02
9.933251738101877e-02
9.921752431943419e-02
9.923850766778158e-02
9.918366624324805e-02
9.921752431943419e-02
9.919926065176664e-02
9.918380745496122e-02
9.923850766778158e-02
9.918366624324805e-02
9.923850766778158e-02
9.923854009492539e-02
9.923974316484108e-02
9.923850766778158e-02
9.918380745496122e-02
9.919408580422397e-02
9.923854009492539e-02
        </DataArray>
  </PointData>
  <CellData>
        <DataArray type="Float64" Name="Owner" format="ascii">
1.000000000000000e+00
1.000000000000000e+00
1.000000000000000e+00
1.000000000000000e+00
1.000000000000000e+00
1.000000000000000e+00
1.000000000000000e+00
1.000000000000000e+00
1.000000000000000e+00
1.000000000000000e+00
1.000000000000000e+00
        </DataArray>
        <DataArray type="Float64" Name="velocity_1" NumberOfComponents="2" format="ascii">
1.963688438196355e+03 -4.543918409261066e-01
1.963342377499167e+03 -1.114264016327570e+00
1.960990515708129e+03 -1.291598849869406e+00
1.966877925965591e+03 2.211857135165154e-17
1.962807187780103e+03 -2.825044411185369e-13
1.961124491105594e+03 -5.894757474029025e-13
1.959157352928624e+03 -1.325844192464135e-12
1.963688438196354e+03 4.543918409263769e-01
1.963342377499167e+03 1.114264016327693e+00
1.966488532007543e+03 1.418627854415241e+00
1.963208322040608e+03 2.975928911983901e+00
        </DataArray>
        <DataArray type="Float64" Name="velocity_2" NumberOfComponents="2" format="ascii">
3.732375116528250e+01 -8.488385147590925e-03
3.729342455990837e+01 -2.081504579816701e-02
3.728418906008679e+01 -2.391253160374812e-02
3.725028296826714e+01 2.211857135165154e-17
3.729534277710075e+01 -1.048655791108938e-13
3.728266049033312e+01 -2.095296592480311e-14
3.727218561179572e+01 -1.258274761510927e-13
3.732375116528240e+01 8.488385147738059e-03
3.729342455990822e+01 2.081504579814618e-02
3.734285342065516e+01 2.658956598154699e-02
3.730875699923773e+01 5.579363898069542e-02
        </DataArray>
      </CellData>

    </Piece>
  </UnstructuredGrid>
</VTKFile>
