<?xml version="1.0" ?> 
<!-- 
# vtk DataFile Version 3.0
-->
<VTKFile type="UnstructuredGrid" version="0.1" compressor="vtkZLibDataCompressor" byte_order="LittleEndian">
  <UnstructuredGrid>
    <FieldData>
      <DataArray type="Float64" Name="TIME" NumberOfTuples="1" format="ascii">
3.000000000000000e-01 
      </DataArray>
    </FieldData>

    <Piece NumberOfPoints="24" NumberOfCells="6" >
      <Points>
        <DataArray type="Float64" NumberOfComponents="3" format="ascii">
5.000000000000000e-01 5.000000000000000e-01 0.000000000000000e+00
3.000000000000000e-01 5.000000000000000e-01 0.000000000000000e+00
2.999999999999999e-01 3.000000000000000e-01 0.000000000000000e+00
5.000000000000000e-01 3.000000000000000e-01 0.000000000000000e+00
3.000000000000000e-01 5.000000000000000e-01 0.000000000000000e+00
9.999999999999998e-02 5.000000000000000e-01 0.000000000000000e+00
1.000000000000000e-01 3.000000000000000e-01 0.000000000000000e+00
2.999999999999999e-01 3.000000000000000e-01 0.000000000000000e+00
9.999999999999998e-02 5.000000000000000e-01 0.000000000000000e+00
-1.000000000000001e-01 5.000000000000000e-01 0.000000000000000e+00
-1.000000000000001e-01 3.000000000000000e-01 0.000000000000000e+00
1.000000000000000e-01 3.000000000000000e-01 0.000000000000000e+00
-1.000000000000001e-01 5.000000000000000e-01 0.000000000000000e+00
-3.000000000000000e-01 5.000000000000000e-01 0.000000000000000e+00
-3.000000000000000e-01 3.000000000000001e-01 0.000000000000000e+00
-1.000000000000001e-01 3.000000000000000e-01 0.000000000000000e+00
-3.000000000000000e-01 5.000000000000000e-01 0.000000000000000e+00
-5.000000000000000e-01 5.000000000000000e-01 0.000000000000000e+00
-5.000000000000000e-01 3.000000000000000e-01 0.000000000000000e+00
-3.000000000000000e-01 3.000000000000001e-01 0.000000000000000e+00
-1.000000000000001e-01 3.000000000000000e-01 0.000000000000000e+00
-3.000000000000000e-01 3.000000000000001e-01 0.000000000000000e+00
-3.000000000000000e-01 1.000000000000000e-01 0.000000000000000e+00
-1.000000000000001e-01 1.000000000000000e-01 0.000000000000000e+00
        </DataArray>
      </Points>

      <Cells>
        <DataArray type="Int32" Name="connectivity" format="ascii">
0 1 2 3 4 5 6 7 8 9 10 11 12 13 14 15 16 17 18 19 20 21 22 23 
        </DataArray>
        <DataArray type="Int32" Name="offsets" format="ascii">
4 8 12 16 20 24 
        </DataArray>
        <DataArray type="UInt8" Name="types" format="ascii">
9 9 9 9 9 9 
        </DataArray>
      </Cells>

  <PointData>
        <DataArray type="Float64" Name="ale-displacement" NumberOfComponents="2" format="ascii">
0.000000000000000e+00 5.907853605019451e-03
-2.364334301449083e-03 6.223956793760682e-03
-2.548458509283927e-03 3.608875235352328e-03
0.000000000000000e+00 3.151760990533204e-03
-2.364334301449083e-03 6.223956793760682e-03
-5.026122586377317e-03 6.708925744734733e-03
-5.381698167385318e-03 4.043976371471671e-03
-2.548458509283927e-03 3.608875235352328e-03
-5.026122586377317e-03 6.708925744734733e-03
-7.895183044372568e-03 7.069489324402845e-03
-8.171752274008693e-03 4.248733811254473e-03
-5.381698167385318e-03 4.043976371471671e-03
-7.895183044372568e-03 7.069489324402845e-03
-1.080784181091764e-02 7.331493889580588e-03
-1.104768966547012e-02 4.410318488629219e-03
-8.171752274008693e-03 4.248733811254473e-03
-1.080784181091764e-02 7.331493889580588e-03
-1.378338671936368e-02 7.598223043213495e-03
-1.401210170254566e-02 4.573315372546892e-03
-1.104768966547012e-02 4.410318488629219e-03
-8.171752274008693e-03 4.248733811254473e-03
-1.104768966547012e-02 4.410318488629219e-03
-1.119184979947704e-02 1.471641655889011e-03
-8.340994778150949e-03 1.421281951797577e-03
        </DataArray>
        <DataArray type="Float64" Name="det_def_grad" format="ascii">
1.025765042687336e+00
1.025806854473724e+00
1.025808453082398e+00
1.027700125556360e+00
1.025806854473724e+00
1.027339869756273e+00
1.027694630606448e+00
1.025808453082398e+00
1.027339869756273e+00
1.028764088121722e+00
1.028486534767769e+00
1.027694630606448e+00
1.028764088121722e+00
1.029542977334475e+00
1.029465180571551e+00
1.028486534767769e+00
1.029542977334475e+00
1.030228806734859e+00
1.030221042415471e+00
1.029465180571551e+00
1.028486534767769e+00
1.029465180571551e+00
1.029424278638572e+00
1.028392654042389e+00
        </DataArray>
        <DataArray type="Float64" Name="phi_1" format="ascii">
0.000000000000000e+00
3.513470116118759e-03
3.511590420256154e-03
0.000000000000000e+00
3.513470116118759e-03
7.025316983545439e-03
7.025900421145506e-03
3.511590420256154e-03
7.025316983545439e-03
1.053609701295120e-02
1.053654815705176e-02
7.025900421145506e-03
1.053609701295120e-02
1.404598962529871e-02
1.404635542083076e-02
1.053654815705176e-02
1.404598962529871e-02
1.755587852793716e-02
1.755587852793716e-02
1.404635542083076e-02
1.053654815705176e-02
1.404635542083076e-02
1.404677276173596e-02
1.053721074992111e-02
        </DataArray>
        <DataArray type="Float64" Name="phi_2" format="ascii">
1.200000000000000e+00
1.220012260531077e+00
1.220001538497861e+00
1.200000000000000e+00
1.220012260531077e+00
1.240015458531230e+00
1.240018773689250e+00
1.220001538497861e+00
1.240015458531230e+00
1.260012990996329e+00
1.260015557728302e+00
1.240018773689250e+00
1.260012990996329e+00
1.280006090925393e+00
1.280008173787566e+00
1.260015557728302e+00
1.280006090925393e+00
1.300000000000000e+00
1.300000000000000e+00
1.280008173787566e+00
1.260015557728302e+00
1.280008173787566e+00
1.280010549760696e+00
1.260019327547634e+00
        </DataArray>
        <DataArray type="Float64" Name="porosity" format="ascii">
7.057838327253718e-01
7.057928777499981e-01
7.057930732794543e-01
7.062068508312404e-01
7.057928777499981e-01
7.061283220719136e-01
7.062058490258382e-01
7.057930732794543e-01
7.061283220719136e-01
7.064391036872684e-01
7.063786057976703e-01
7.062058490258382e-01
7.064391036872684e-01
7.066086880881050e-01
7.065917550281414e-01
7.063786057976703e-01
7.066086880881050e-01
7.067578159928755e-01
7.067561283341895e-01
7.065917550281414e-01
7.063786057976703e-01
7.065917550281414e-01
7.065828516492433e-01
7.063581359400244e-01
        </DataArray>
        <DataArray type="Float64" Name="pressure_1" format="ascii">
0.000000000000000e+00
3.513470116118759e-03
3.511590420256154e-03
0.000000000000000e+00
3.513470116118759e-03
7.025316983545439e-03
7.025900421145506e-03
3.511590420256154e-03
7.025316983545439e-03
1.053609701295120e-02
1.053654815705176e-02
7.025900421145506e-03
1.053609701295120e-02
1.404598962529871e-02
1.404635542083076e-02
1.053654815705176e-02
1.404598962529871e-02
1.755587852793716e-02
1.755587852793716e-02
1.404635542083076e-02
1.053654815705176e-02
1.404635542083076e-02
1.404677276173596e-02
1.053721074992111e-02
        </DataArray>
        <DataArray type="Float64" Name="pressure_2" format="ascii">
1.200000000000000e+00
1.220012260531077e+00
1.220001538497861e+00
1.200000000000000e+00
1.220012260531077e+00
1.240015458531230e+00
1.240018773689250e+00
1.220001538497861e+00
1.240015458531230e+00
1.260012990996329e+00
1.260015557728302e+00
1.240018773689250e+00
1.260012990996329e+00
1.280006090925393e+00
1.280008173787566e+00
1.260015557728302e+00
1.280006090925393e+00
1.300000000000000e+00
1.300000000000000e+00
1.280008173787566e+00
1.260015557728302e+00
1.280008173787566e+00
1.280010549760696e+00
1.260019327547634e+00
        </DataArray>
        <DataArray type="Float64" Name="saturation_1" format="ascii">
1.000000000000000e+00
1.000000000000000e+00
1.000000000000000e+00
1.000000000000000e+00
1.000000000000000e+00
1.000000000000000e+00
1.000000000000000e+00
1.000000000000000e+00
1.000000000000000e+00
1.000000000000000e+00
1.000000000000000e+00
1.000000000000000e+00
1.000000000000000e+00
1.000000000000000e+00
1.000000000000000e+00
1.000000000000000e+00
1.000000000000000e+00
1.000000000000000e+00
1.000000000000000e+00
1.000000000000000e+00
1.000000000000000e+00
1.000000000000000e+00
1.000000000000000e+00
1.000000000000000e+00
        </DataArray>
        <DataArray type="Float64" Name="saturation_2" format="ascii">
-1.000000000000000e+00
-1.000000000000000e+00
-1.000000000000000e+00
-1.000000000000000e+00
-1.000000000000000e+00
-1.000000000000000e+00
-1.000000000000000e+00
-1.000000000000000e+00
-1.000000000000000e+00
-1.000000000000000e+00
-1.000000000000000e+00
-1.000000000000000e+00
-1.000000000000000e+00
-1.000000000000000e+00
-1.000000000000000e+00
-1.000000000000000e+00
-1.000000000000000e+00
-1.000000000000000e+00
-1.000000000000000e+00
-1.000000000000000e+00
-1.000000000000000e+00
-1.000000000000000e+00
-1.000000000000000e+00
-1.000000000000000e+00
        </DataArray>
        <DataArray type="Float64" Name="solidpressure" format="ascii">
1.479306884472167e-01
1.534747882348249e-01
1.534717533493394e-01
1.477797562424354e-01
1.534747882348249e-01
1.588965835427014e-01
1.588690823644115e-01
1.534717533493394e-01
1.588965835427014e-01
1.643226508444894e-01
1.643458314808985e-01
1.588690823644115e-01
1.643226508444894e-01
1.697975010117231e-01
1.698044491184445e-01
1.643458314808985e-01
1.697975010117231e-01
1.752785903180224e-01
1.752792334803684e-01
1.698044491184445e-01
1.643458314808985e-01
1.698044491184445e-01
1.698084573679853e-01
1.643544794065173e-01
        </DataArray>
        <DataArray type="Float64" Name="volfrac_blood_lung" format="ascii">
9.923974316484109e-02
9.923854009492539e-02
9.923850766778160e-02
9.918366624324804e-02
9.923854009492539e-02
9.919408580422398e-02
9.918380745496123e-02
9.923850766778160e-02
9.919408580422398e-02
9.915286379701674e-02
9.916089107834331e-02
9.918380745496123e-02
9.915286379701674e-02
9.913035418131649e-02
9.913260199867990e-02
9.916089107834331e-02
9.913035418131649e-02
9.911055160415660e-02
9.911077573357623e-02
9.913260199867990e-02
9.916089107834331e-02
9.913260199867990e-02
9.913378386570593e-02
9.916360687364296e-02
        </DataArray>
  </PointData>
  <CellData>
        <DataArray type="Float64" Name="Owner" format="ascii">
0.000000000000000e+00
0.000000000000000e+00
0.000000000000000e+00
0.000000000000000e+00
0.000000000000000e+00
0.000000000000000e+00
        </DataArray>
        <DataArray type="Float64" Name="velocity_1" NumberOfComponents="2" format="ascii">
1.966488532007543e+03 -1.418627854415757e+00
1.963208322040608e+03 -2.975928911984231e+00
1.960528104232889e+03 -2.766113056205268e+00
1.958830114113232e+03 -2.263200146050738e+00
1.957474754189995e+03 -2.154839845679659e+00
1.959095718097853e+03 -1.210802373471070e+00
        </DataArray>
        <DataArray type="Float64" Name="velocity_2" NumberOfComponents="2" format="ascii">
3.734285342065525e+01 -2.658956598146279e-02
3.730875699923781e+01 -5.579363898075807e-02
3.727905411482718e+01 -5.126095916511601e-02
3.726895433542907e+01 -4.113111241838099e-02
3.726372731890153e+01 -3.850903933731222e-02
3.727145227452522e+01 -2.208215561144527e-02
        </DataArray>
      </CellData>

    </Piece>
  </UnstructuredGrid>
</VTKFile>
