<?xml version="1.0"?>
<VTKFile type="UnstructuredGrid" version="0.1" byte_order="LittleEndian">
<!--This file was created by meshio v5.3.5-->
<UnstructuredGrid>
<Piece NumberOfPoints="32" NumberOfCells="7">
<Points>
<DataArray type="Float64" Name="Points" NumberOfComponents="3" format="ascii">
1.00000000000e+00 1.00000000000e+00 0.00000000000e+00
-1.00000000000e+00 1.00000000000e+00 0.00000000000e+00
-1.00000000000e+00 -1.00000000000e+00 0.00000000000e+00
1.00000000000e+00 -1.00000000000e+00 0.00000000000e+00
1.22564879036e+00 1.00000000000e+00 2.00268840561e+00
-7.24207034000e-01 1.00000000000e+00 2.44773027352e+00
-7.24207034000e-01 -1.00000000000e+00 2.44773027352e+00
1.22564879036e+00 -1.00000000000e+00 2.00268840561e+00
1.89128018888e+00 1.00000000000e+00 3.90495365206e+00
8.93424530734e-02 1.00000000000e+00 4.77272113029e+00
8.93424530734e-02 -1.00000000000e+00 4.77272113029e+00
1.89128018888e+00 -1.00000000000e+00 3.90495365206e+00
2.96351665779e+00 1.00000000000e+00 5.61140821673e+00
1.39985369285e+00 1.00000000000e+00 6.85838782045e+00
1.39985369285e+00 -1.00000000000e+00 6.85838782045e+00
2.96351665779e+00 -1.00000000000e+00 5.61140821673e+00
4.38859178327e+00 1.00000000000e+00 7.03648334221e+00
3.14161217955e+00 1.00000000000e+00 8.60014630715e+00
3.14161217955e+00 -1.00000000000e+00 8.60014630715e+00
4.38859178327e+00 -1.00000000000e+00 7.03648334221e+00
6.09504634794e+00 1.00000000000e+00 8.10871981112e+00
5.22727886971e+00 1.00000000000e+00 9.91065754693e+00
5.22727886971e+00 -1.00000000000e+00 9.91065754693e+00
6.09504634794e+00 -1.00000000000e+00 8.10871981112e+00
7.99731159439e+00 1.00000000000e+00 8.77435120964e+00
7.55226972648e+00 1.00000000000e+00 1.07242070340e+01
7.55226972648e+00 -1.00000000000e+00 1.07242070340e+01
7.99731159439e+00 -1.00000000000e+00 8.77435120964e+00
1.00000000000e+01 1.00000000000e+00 9.00000000000e+00
1.00000000000e+01 1.00000000000e+00 1.10000000000e+01
1.00000000000e+01 -1.00000000000e+00 1.10000000000e+01
1.00000000000e+01 -1.00000000000e+00 9.00000000000e+00

</DataArray>
</Points>
<Cells>
<DataArray type="Int64" Name="connectivity" format="ascii">
0
1
2
3
4
5
6
7
4
5
6
7
8
9
10
11
8
9
10
11
12
13
14
15
12
13
14
15
16
17
18
19
16
17
18
19
20
21
22
23
20
21
22
23
24
25
26
27
24
25
26
27
28
29
30
31

</DataArray>
<DataArray type="Int64" Name="offsets" format="ascii">
8
16
24
32
40
48
56

</DataArray>
<DataArray type="Int64" Name="types" format="ascii">
12
12
12
12
12
12
12

</DataArray>
</Cells>
<PointData>
<DataArray type="Float64" Name="cir" NumberOfComponents="3" format="ascii">
0.00000000000e+00 0.00000000000e+00 1.00000000000e+00
0.00000000000e+00 0.00000000000e+00 1.00000000000e+00
0.00000000000e+00 0.00000000000e+00 1.00000000000e+00
0.00000000000e+00 0.00000000000e+00 1.00000000000e+00
2.22520933956e-01 0.00000000000e+00 9.74927912182e-01
2.22520933956e-01 0.00000000000e+00 9.74927912182e-01
2.22520933956e-01 0.00000000000e+00 9.74927912182e-01
2.22520933956e-01 0.00000000000e+00 9.74927912182e-01
4.33883739118e-01 0.00000000000e+00 9.00968867902e-01
4.33883739118e-01 0.00000000000e+00 9.00968867902e-01
4.33883739118e-01 0.00000000000e+00 9.00968867902e-01
4.33883739118e-01 0.00000000000e+00 9.00968867902e-01
6.23489801859e-01 0.00000000000e+00 7.81831482468e-01
6.23489801859e-01 0.00000000000e+00 7.81831482468e-01
6.23489801859e-01 0.00000000000e+00 7.81831482468e-01
6.23489801859e-01 0.00000000000e+00 7.81831482468e-01
7.81831482468e-01 0.00000000000e+00 6.23489801859e-01
7.81831482468e-01 0.00000000000e+00 6.23489801859e-01
7.81831482468e-01 0.00000000000e+00 6.23489801859e-01
7.81831482468e-01 0.00000000000e+00 6.23489801859e-01
9.00968867902e-01 0.00000000000e+00 4.33883739118e-01
9.00968867902e-01 0.00000000000e+00 4.33883739118e-01
9.00968867902e-01 0.00000000000e+00 4.33883739118e-01
9.00968867902e-01 0.00000000000e+00 4.33883739118e-01
9.74927912182e-01 0.00000000000e+00 2.22520933956e-01
9.74927912182e-01 0.00000000000e+00 2.22520933956e-01
9.74927912182e-01 0.00000000000e+00 2.22520933956e-01
9.74927912182e-01 0.00000000000e+00 2.22520933956e-01
1.00000000000e+00 0.00000000000e+00 6.12323399574e-17
1.00000000000e+00 0.00000000000e+00 6.12323399574e-17
1.00000000000e+00 0.00000000000e+00 6.12323399574e-17
1.00000000000e+00 0.00000000000e+00 6.12323399574e-17

</DataArray>
<DataArray type="Float64" Name="axi" NumberOfComponents="3" format="ascii">
0.00000000000e+00 1.00000000000e+00 0.00000000000e+00
0.00000000000e+00 1.00000000000e+00 0.00000000000e+00
0.00000000000e+00 1.00000000000e+00 0.00000000000e+00
0.00000000000e+00 1.00000000000e+00 0.00000000000e+00
0.00000000000e+00 1.00000000000e+00 0.00000000000e+00
0.00000000000e+00 1.00000000000e+00 0.00000000000e+00
0.00000000000e+00 1.00000000000e+00 0.00000000000e+00
0.00000000000e+00 1.00000000000e+00 0.00000000000e+00
0.00000000000e+00 1.00000000000e+00 0.00000000000e+00
0.00000000000e+00 1.00000000000e+00 0.00000000000e+00
0.00000000000e+00 1.00000000000e+00 0.00000000000e+00
0.00000000000e+00 1.00000000000e+00 0.00000000000e+00
0.00000000000e+00 1.00000000000e+00 0.00000000000e+00
0.00000000000e+00 1.00000000000e+00 0.00000000000e+00
0.00000000000e+00 1.00000000000e+00 0.00000000000e+00
0.00000000000e+00 1.00000000000e+00 0.00000000000e+00
0.00000000000e+00 1.00000000000e+00 0.00000000000e+00
0.00000000000e+00 1.00000000000e+00 0.00000000000e+00
0.00000000000e+00 1.00000000000e+00 0.00000000000e+00
0.00000000000e+00 1.00000000000e+00 0.00000000000e+00
0.00000000000e+00 1.00000000000e+00 0.00000000000e+00
0.00000000000e+00 1.00000000000e+00 0.00000000000e+00
0.00000000000e+00 1.00000000000e+00 0.00000000000e+00
0.00000000000e+00 1.00000000000e+00 0.00000000000e+00
0.00000000000e+00 1.00000000000e+00 0.00000000000e+00
0.00000000000e+00 1.00000000000e+00 0.00000000000e+00
0.00000000000e+00 1.00000000000e+00 0.00000000000e+00
0.00000000000e+00 1.00000000000e+00 0.00000000000e+00
0.00000000000e+00 1.00000000000e+00 0.00000000000e+00
0.00000000000e+00 1.00000000000e+00 0.00000000000e+00
0.00000000000e+00 1.00000000000e+00 0.00000000000e+00
0.00000000000e+00 1.00000000000e+00 0.00000000000e+00

</DataArray>
<DataArray type="Bit" Name="point_set_1" format="ascii">
1
0
0
1
1
0
0
1
1
0
0
1
1
0
0
1
1
0
0
1
1
0
0
1
1
0
0
1
1
0
0
1

</DataArray>
<DataArray type="Bit" Name="point_set_2" format="ascii">
1
1
1
1
0
0
0
0
0
0
0
0
0
0
0
0
0
0
0
0
0
0
0
0
0
0
0
0
0
0
0
0

</DataArray>
<DataArray type="Bit" Name="point_set_3" format="ascii">
0
0
0
0
0
0
0
0
0
0
0
0
0
0
0
0
0
0
0
0
0
0
0
0
0
0
0
0
1
1
1
1

</DataArray>
<DataArray type="Bit" Name="point_set_4" format="ascii">
0
0
0
0
0
0
0
0
0
0
0
0
0
0
0
0
0
0
0
0
0
0
0
0
0
0
0
0
1
0
0
0

</DataArray>
<DataArray type="Bit" Name="point_set_5" format="ascii">
0
0
0
0
0
0
0
0
0
0
0
0
0
0
0
0
0
0
0
0
0
0
0
0
0
0
0
0
0
0
0
1

</DataArray>
</PointData>
<CellData>
<DataArray type="Int64" Name="block_id" format="ascii">
1
1
1
1
1
1
1

</DataArray>
</CellData>
</Piece>
</UnstructuredGrid>
</VTKFile>
