<?xml version="1.0"?>
<VTKFile type="UnstructuredGrid" version="0.1" byte_order="LittleEndian">
<!--This file was created by meshio v5.3.5-->
<UnstructuredGrid>
<Piece NumberOfPoints="405" NumberOfCells="196">
<Points>
<DataArray type="Float64" Name="Points" NumberOfComponents="3" format="ascii">
1.00000000000e+00 1.00000000000e+00 0.00000000000e+00
-1.00000000000e+00 1.00000000000e+00 0.00000000000e+00
1.00000000000e+00 -1.00000000000e+00 0.00000000000e+00
1.22564879036e+00 1.00000000000e+00 2.00268840561e+00
0.00000000000e+00 0.00000000000e+00 0.00000000000e+00
1.25360439091e-01 1.00000000000e+00 1.11260466978e+00
1.11282439518e+00 0.00000000000e+00 1.00134420280e+00
1.11282439518e+00 1.00000000000e+00 1.00134420280e+00
1.05641219759e+00 5.00000000000e-01 5.00672101402e-01
1.16923659277e+00 5.00000000000e-01 1.50201630421e+00
6.75504614727e-01 1.00000000000e+00 1.55764653769e+00
5.62680219545e-01 1.00000000000e+00 5.56302334891e-01
6.19092417136e-01 5.00000000000e-01 1.05697443629e+00
1.00000000000e+00 0.00000000000e+00 0.00000000000e+00
1.05641219759e+00 -5.00000000000e-01 5.00672101402e-01
5.00000000000e-01 5.00000000000e-01 0.00000000000e+00
5.00000000000e-01 -5.00000000000e-01 0.00000000000e+00
5.56412197591e-01 0.00000000000e+00 5.00672101402e-01
0.00000000000e+00 1.00000000000e+00 0.00000000000e+00
-5.00000000000e-01 5.00000000000e-01 0.00000000000e+00
-4.37319780455e-01 1.00000000000e+00 5.56302334891e-01
6.26802195454e-02 5.00000000000e-01 5.56302334891e-01
-1.00000000000e+00 -1.00000000000e+00 0.00000000000e+00
-7.24207034000e-01 1.00000000000e+00 2.44773027352e+00
-8.62103517000e-01 0.00000000000e+00 1.22386513676e+00
-2.99423297455e-01 1.00000000000e+00 1.78016747165e+00
-5.00000000000e-01 -5.00000000000e-01 0.00000000000e+00
-8.62103517000e-01 1.00000000000e+00 1.22386513676e+00
-7.93155275500e-01 5.00000000000e-01 1.83579770514e+00
-9.31051758500e-01 5.00000000000e-01 6.11932568380e-01
-3.68371538955e-01 5.00000000000e-01 1.16823490327e+00
-1.00000000000e+00 0.00000000000e+00 0.00000000000e+00
-9.31051758500e-01 -5.00000000000e-01 6.11932568380e-01
-4.31051758500e-01 0.00000000000e+00 6.11932568380e-01
1.22564879036e+00 -1.00000000000e+00 2.00268840561e+00
1.25360439091e-01 -1.00000000000e+00 1.11260466978e+00
1.11282439518e+00 -1.00000000000e+00 1.00134420280e+00
1.16923659277e+00 -5.00000000000e-01 1.50201630421e+00
5.62680219545e-01 -1.00000000000e+00 5.56302334891e-01
6.75504614727e-01 -1.00000000000e+00 1.55764653769e+00
6.19092417136e-01 -5.00000000000e-01 1.05697443629e+00
0.00000000000e+00 -1.00000000000e+00 0.00000000000e+00
-4.37319780455e-01 -1.00000000000e+00 5.56302334891e-01
6.26802195454e-02 -5.00000000000e-01 5.56302334891e-01
1.89128018888e+00 1.00000000000e+00 3.90495365206e+00
2.50720878182e-01 0.00000000000e+00 2.22520933956e+00
6.20516099579e-01 1.00000000000e+00 3.28202336537e+00
1.55846448962e+00 0.00000000000e+00 2.95382102883e+00
1.22564879036e+00 0.00000000000e+00 2.00268840561e+00
7.38184834273e-01 -5.00000000000e-01 2.11394887258e+00
7.38184834273e-01 5.00000000000e-01 2.11394887258e+00
6.81772636682e-01 0.00000000000e+00 1.61327677118e+00
2.50720878182e-01 1.00000000000e+00 2.22520933956e+00
-2.36743077909e-01 5.00000000000e-01 2.33646980654e+00
1.88040658636e-01 5.00000000000e-01 1.66890700467e+00
1.55846448962e+00 1.00000000000e+00 2.95382102883e+00
1.39205663999e+00 5.00000000000e-01 2.47825471722e+00
1.72487233925e+00 5.00000000000e-01 3.42938734045e+00
1.25589814423e+00 1.00000000000e+00 3.59348850871e+00
9.23082444971e-01 1.00000000000e+00 2.64235588549e+00
1.08949029460e+00 5.00000000000e-01 3.11792219710e+00
1.39205663999e+00 -5.00000000000e-01 2.47825471722e+00
9.04592683901e-01 0.00000000000e+00 2.58951518420e+00
-5.18454672106e-02 1.00000000000e+00 2.86487681944e+00
4.35618488880e-01 5.00000000000e-01 2.75361635247e+00
1.25360439091e-01 0.00000000000e+00 1.11260466978e+00
-3.68371538955e-01 -5.00000000000e-01 1.16823490327e+00
6.19092417136e-01 0.00000000000e+00 1.05697443629e+00
1.25360439091e-01 5.00000000000e-01 1.11260466978e+00
6.26802195454e-02 0.00000000000e+00 5.56302334891e-01
1.25360439091e-01 -5.00000000000e-01 1.11260466978e+00
-3.68371538955e-01 0.00000000000e+00 1.16823490327e+00
-3.05691319409e-01 0.00000000000e+00 1.72453723816e+00
1.88040658636e-01 0.00000000000e+00 1.66890700467e+00
1.88040658636e-01 -5.00000000000e-01 1.66890700467e+00
-7.24207034000e-01 -1.00000000000e+00 2.44773027352e+00
-2.99423297455e-01 -1.00000000000e+00 1.78016747165e+00
-8.62103517000e-01 -1.00000000000e+00 1.22386513676e+00
-7.93155275500e-01 -5.00000000000e-01 1.83579770514e+00
8.93424530734e-02 1.00000000000e+00 4.77272113029e+00
-3.17432290463e-01 0.00000000000e+00 3.61022570191e+00
-2.36743077909e-01 -5.00000000000e-01 2.33646980654e+00
-7.24207034000e-01 0.00000000000e+00 2.44773027352e+00
3.54929276326e-01 1.00000000000e+00 4.02737224783e+00
-3.17432290463e-01 1.00000000000e+00 3.61022570191e+00
-1.14044918695e-01 5.00000000000e-01 4.19147341610e+00
-5.20819662232e-01 5.00000000000e-01 3.02897798771e+00
1.51541904558e-01 5.00000000000e-01 3.44612453364e+00
-5.20819662232e-01 -5.00000000000e-01 3.02897798771e+00
-3.33557061408e-02 0.00000000000e+00 2.91771752073e+00
1.89128018888e+00 -1.00000000000e+00 3.90495365206e+00
6.20516099579e-01 -1.00000000000e+00 3.28202336537e+00
2.50720878182e-01 -1.00000000000e+00 2.22520933956e+00
1.55846448962e+00 -1.00000000000e+00 2.95382102883e+00
1.72487233925e+00 -5.00000000000e-01 3.42938734045e+00
9.23082444971e-01 -1.00000000000e+00 2.64235588549e+00
1.25589814423e+00 -1.00000000000e+00 3.59348850871e+00
1.08949029460e+00 -5.00000000000e-01 3.11792219710e+00
-5.18454672106e-02 -1.00000000000e+00 2.86487681944e+00
4.35618488880e-01 -5.00000000000e-01 2.75361635247e+00
2.96351665779e+00 1.00000000000e+00 5.61140821673e+00
9.90311320976e-01 0.00000000000e+00 4.33883739118e+00
1.58599824815e+00 1.00000000000e+00 5.28686770488e+00
2.42739842333e+00 0.00000000000e+00 4.75818093439e+00
1.89128018888e+00 0.00000000000e+00 3.90495365206e+00
1.44079575493e+00 -5.00000000000e-01 4.12189552162e+00
1.44079575493e+00 5.00000000000e-01 4.12189552162e+00
1.27438790530e+00 0.00000000000e+00 3.64632921000e+00
9.90311320976e-01 1.00000000000e+00 4.33883739118e+00
5.39826887025e-01 5.00000000000e-01 4.55577926073e+00
8.05413710277e-01 5.00000000000e-01 3.81043037827e+00
2.42739842333e+00 1.00000000000e+00 4.75818093439e+00
2.15933930611e+00 5.00000000000e-01 4.33156729323e+00
2.69545754056e+00 5.00000000000e-01 5.18479457556e+00
2.27475745297e+00 1.00000000000e+00 5.44913796081e+00
1.73863921851e+00 1.00000000000e+00 4.59591067847e+00
2.00669833574e+00 5.00000000000e-01 5.02252431964e+00
2.15933930611e+00 -5.00000000000e-01 4.33156729323e+00
1.70885487215e+00 0.00000000000e+00 4.54850916278e+00
8.37670350611e-01 1.00000000000e+00 5.02979441759e+00
1.28815478456e+00 5.00000000000e-01 4.81285254803e+00
6.20516099579e-01 0.00000000000e+00 3.28202336537e+00
1.51541904558e-01 -5.00000000000e-01 3.44612453364e+00
1.08949029460e+00 0.00000000000e+00 3.11792219710e+00
6.20516099579e-01 5.00000000000e-01 3.28202336537e+00
4.35618488880e-01 0.00000000000e+00 2.75361635247e+00
6.20516099579e-01 -5.00000000000e-01 3.28202336537e+00
1.51541904558e-01 0.00000000000e+00 3.44612453364e+00
3.36439515256e-01 0.00000000000e+00 3.97453154654e+00
8.05413710277e-01 0.00000000000e+00 3.81043037827e+00
8.05413710277e-01 -5.00000000000e-01 3.81043037827e+00
8.93424530734e-02 -1.00000000000e+00 4.77272113029e+00
3.54929276326e-01 -1.00000000000e+00 4.02737224783e+00
-3.17432290463e-01 -1.00000000000e+00 3.61022570191e+00
-1.14044918695e-01 -5.00000000000e-01 4.19147341610e+00
1.39985369285e+00 1.00000000000e+00 6.85838782045e+00
7.44598072963e-01 0.00000000000e+00 5.81555447537e+00
5.39826887025e-01 -5.00000000000e-01 4.55577926073e+00
8.93424530734e-02 0.00000000000e+00 4.77272113029e+00
1.49292597050e+00 1.00000000000e+00 6.07262776266e+00
7.44598072963e-01 1.00000000000e+00 5.81555447537e+00
1.07222588291e+00 5.00000000000e-01 6.33697114791e+00
4.16970263018e-01 5.00000000000e-01 5.29413780283e+00
1.16529816056e+00 5.00000000000e-01 5.55121109013e+00
4.16970263018e-01 -5.00000000000e-01 5.29413780283e+00
8.67454696969e-01 0.00000000000e+00 5.07719593327e+00
2.96351665779e+00 -1.00000000000e+00 5.61140821673e+00
1.58599824815e+00 -1.00000000000e+00 5.28686770488e+00
9.90311320976e-01 -1.00000000000e+00 4.33883739118e+00
2.42739842333e+00 -1.00000000000e+00 4.75818093439e+00
2.69545754056e+00 -5.00000000000e-01 5.18479457556e+00
1.73863921851e+00 -1.00000000000e+00 4.59591067847e+00
2.27475745297e+00 -1.00000000000e+00 5.44913796081e+00
2.00669833574e+00 -5.00000000000e-01 5.02252431964e+00
8.37670350611e-01 -1.00000000000e+00 5.02979441759e+00
1.28815478456e+00 -5.00000000000e-01 4.81285254803e+00
4.38859178327e+00 1.00000000000e+00 7.03648334221e+00
2.18168517532e+00 0.00000000000e+00 6.23489801859e+00
2.97339357837e+00 1.00000000000e+00 7.02660642163e+00
3.67605422053e+00 0.00000000000e+00 6.32394577947e+00
2.96351665779e+00 0.00000000000e+00 5.61140821673e+00
2.57260091655e+00 -5.00000000000e-01 5.92315311766e+00
2.57260091655e+00 5.00000000000e-01 5.92315311766e+00
2.30454179933e+00 0.00000000000e+00 5.49653947649e+00
2.18168517532e+00 1.00000000000e+00 6.23489801859e+00
1.79076943409e+00 5.00000000000e-01 6.54664291952e+00
1.88384171173e+00 5.00000000000e-01 5.76088286173e+00
3.67605422053e+00 1.00000000000e+00 6.32394577947e+00
3.31978543916e+00 5.00000000000e-01 5.96767699810e+00
4.03232300190e+00 5.00000000000e-01 6.68021456084e+00
3.68099268082e+00 1.00000000000e+00 7.03154488192e+00
2.96845511808e+00 1.00000000000e+00 6.31900731918e+00
3.32472389945e+00 5.00000000000e-01 6.67527610055e+00
3.31978543916e+00 -5.00000000000e-01 5.96767699810e+00
2.92886969792e+00 0.00000000000e+00 6.27942189903e+00
2.18662363561e+00 1.00000000000e+00 6.94249712104e+00
2.57753937684e+00 5.00000000000e-01 6.63075222011e+00
[...]
<PointData>
<DataArray type="Float64" Name="cir" NumberOfComponents="3" format="ascii">
0.00000000000e+00 0.00000000000e+00 1.00000000000e+00
0.00000000000e+00 0.00000000000e+00 1.00000000000e+00
0.00000000000e+00 0.00000000000e+00 1.00000000000e+00
2.22520933956e-01 0.00000000000e+00 9.74927912182e-01
0.00000000000e+00 0.00000000000e+00 1.00000000000e+00
1.11964476103e-01 0.00000000000e+00 9.93712209893e-01
1.11964476103e-01 0.00000000000e+00 9.93712209893e-01
1.11964476103e-01 0.00000000000e+00 9.93712209893e-01
5.58936108064e-02 0.00000000000e+00 9.98436730229e-01
1.67680832419e-01 0.00000000000e+00 9.85841335327e-01
1.64765779331e-01 0.00000000000e+00 9.86332721733e-01
5.88449211896e-02 0.00000000000e+00 9.98267136217e-01
1.11964476103e-01 0.00000000000e+00 9.93712209893e-01
0.00000000000e+00 0.00000000000e+00 1.00000000000e+00
5.58936108064e-02 0.00000000000e+00 9.98436730229e-01
0.00000000000e+00 0.00000000000e+00 1.00000000000e+00
0.00000000000e+00 0.00000000000e+00 1.00000000000e+00
5.29427949070e-02 0.00000000000e+00 9.98597546796e-01
0.00000000000e+00 0.00000000000e+00 1.00000000000e+00
0.00000000000e+00 0.00000000000e+00 1.00000000000e+00
5.32238015735e-02 0.00000000000e+00 9.98582608974e-01
5.58936108064e-02 0.00000000000e+00 9.98436730229e-01
0.00000000000e+00 0.00000000000e+00 1.00000000000e+00
2.22520933956e-01 0.00000000000e+00 9.74927912182e-01
1.11964476103e-01 0.00000000000e+00 9.93712209893e-01
1.70316165035e-01 0.00000000000e+00 9.85389468143e-01
0.00000000000e+00 0.00000000000e+00 1.00000000000e+00
1.11964476103e-01 0.00000000000e+00 9.93712209893e-01
1.67680832419e-01 0.00000000000e+00 9.85841335327e-01
5.58936108064e-02 0.00000000000e+00 9.98436730229e-01
1.11964476103e-01 0.00000000000e+00 9.93712209893e-01
0.00000000000e+00 0.00000000000e+00 1.00000000000e+00
5.58936108064e-02 0.00000000000e+00 9.98436730229e-01
5.85638248223e-02 0.00000000000e+00 9.98283666310e-01
2.22520933956e-01 0.00000000000e+00 9.74927912182e-01
1.11964476103e-01 0.00000000000e+00 9.93712209893e-01
1.11964476103e-01 0.00000000000e+00 9.93712209893e-01
1.67680832419e-01 0.00000000000e+00 9.85841335327e-01
5.88449211896e-02 0.00000000000e+00 9.98267136217e-01
1.64765779331e-01 0.00000000000e+00 9.86332721733e-01
1.11964476103e-01 0.00000000000e+00 9.93712209893e-01
0.00000000000e+00 0.00000000000e+00 1.00000000000e+00
5.32238015735e-02 0.00000000000e+00 9.98582608974e-01
5.58936108064e-02 0.00000000000e+00 9.98436730229e-01
4.33883739118e-01 0.00000000000e+00 9.00968867902e-01
2.22520933956e-01 0.00000000000e+00 9.74927912182e-01
3.30279061955e-01 0.00000000000e+00 9.43883330308e-01
3.30279061955e-01 0.00000000000e+00 9.43883330308e-01
2.22520933956e-01 0.00000000000e+00 9.74927912182e-01
2.22520933956e-01 0.00000000000e+00 9.74927912182e-01
2.22520933956e-01 0.00000000000e+00 9.74927912182e-01
1.70593450256e-01 0.00000000000e+00 9.85341501577e-01
2.22520933956e-01 0.00000000000e+00 9.74927912182e-01
2.22520933956e-01 0.00000000000e+00 9.74927912182e-01
1.67680832419e-01 0.00000000000e+00 9.85841335327e-01
3.30279061955e-01 0.00000000000e+00 9.43883330308e-01
2.76665314995e-01 0.00000000000e+00 9.60966338369e-01
3.82847058533e-01 0.00000000000e+00 9.23811739356e-01
3.80114435674e-01 0.00000000000e+00 9.24939466015e-01
2.79504891647e-01 0.00000000000e+00 9.60144268090e-01
3.30279061955e-01 0.00000000000e+00 9.43883330308e-01
2.76665314995e-01 0.00000000000e+00 9.60966338369e-01
2.73824267263e-01 0.00000000000e+00 9.61779741239e-01
2.74094904528e-01 0.00000000000e+00 9.61702648074e-01
2.76665314995e-01 0.00000000000e+00 9.60966338369e-01
1.11964476103e-01 0.00000000000e+00 9.93712209893e-01
1.11964476103e-01 0.00000000000e+00 9.93712209893e-01
1.11964476103e-01 0.00000000000e+00 9.93712209893e-01
1.11964476103e-01 0.00000000000e+00 9.93712209893e-01
5.58936108064e-02 0.00000000000e+00 9.98436730229e-01
1.11964476103e-01 0.00000000000e+00 9.93712209893e-01
1.11964476103e-01 0.00000000000e+00 9.93712209893e-01
1.65043506317e-01 0.00000000000e+00 9.86286287557e-01
1.67680832419e-01 0.00000000000e+00 9.85841335327e-01
1.67680832419e-01 0.00000000000e+00 9.85841335327e-01
2.22520933956e-01 0.00000000000e+00 9.74927912182e-01
1.70316165035e-01 0.00000000000e+00 9.85389468143e-01
1.11964476103e-01 0.00000000000e+00 9.93712209893e-01
1.67680832419e-01 0.00000000000e+00 9.85841335327e-01
4.33883739118e-01 0.00000000000e+00 9.00968867902e-01
3.30279061955e-01 0.00000000000e+00 9.43883330308e-01
2.22520933956e-01 0.00000000000e+00 9.74927912182e-01
2.22520933956e-01 0.00000000000e+00 9.74927912182e-01
3.85315767950e-01 0.00000000000e+00 9.22784784751e-01
3.30279061955e-01 0.00000000000e+00 9.43883330308e-01
3.82847058533e-01 0.00000000000e+00 9.23811739356e-01
2.76665314995e-01 0.00000000000e+00 9.60966338369e-01
3.30279061955e-01 0.00000000000e+00 9.43883330308e-01
2.76665314995e-01 0.00000000000e+00 9.60966338369e-01
2.79234521244e-01 0.00000000000e+00 9.60222933566e-01
4.33883739118e-01 0.00000000000e+00 9.00968867902e-01
3.30279061955e-01 0.00000000000e+00 9.43883330308e-01
2.22520933956e-01 0.00000000000e+00 9.74927912182e-01
3.30279061955e-01 0.00000000000e+00 9.43883330308e-01
3.82847058533e-01 0.00000000000e+00 9.23811739356e-01
2.79504891647e-01 0.00000000000e+00 9.60144268090e-01
3.80114435674e-01 0.00000000000e+00 9.24939466015e-01
3.30279061955e-01 0.00000000000e+00 9.43883330308e-01
2.74094904528e-01 0.00000000000e+00 9.61702648074e-01
2.76665314995e-01 0.00000000000e+00 9.60966338369e-01
6.23489801859e-01 0.00000000000e+00 7.81831482468e-01
4.33883739118e-01 0.00000000000e+00 9.00968867902e-01
5.32032076515e-01 0.00000000000e+00 8.46724199228e-01
5.32032076515e-01 0.00000000000e+00 8.46724199228e-01
4.33883739118e-01 0.00000000000e+00 9.00968867902e-01
4.33883739118e-01 0.00000000000e+00 9.00968867902e-01
4.33883739118e-01 0.00000000000e+00 9.00968867902e-01
3.85575427487e-01 0.00000000000e+00 9.22676319041e-01
4.33883739118e-01 0.00000000000e+00 9.00968867902e-01
4.33883739118e-01 0.00000000000e+00 9.00968867902e-01
3.82847058533e-01 0.00000000000e+00 9.23811739356e-01
5.32032076515e-01 0.00000000000e+00 8.46724199228e-01
4.83563865035e-01 0.00000000000e+00 8.75309081657e-01
5.78815734502e-01 0.00000000000e+00 8.15458365273e-01
5.76402566992e-01 0.00000000000e+00 8.17165883260e-01
4.86149319726e-01 0.00000000000e+00 8.73875757147e-01
5.32032076515e-01 0.00000000000e+00 8.46724199228e-01
4.83563865035e-01 0.00000000000e+00 8.75309081657e-01
4.80975047469e-01 0.00000000000e+00 8.76734283414e-01
4.81221744449e-01 0.00000000000e+00 8.76598900678e-01
4.83563865035e-01 0.00000000000e+00 8.75309081657e-01
3.30279061955e-01 0.00000000000e+00 9.43883330308e-01
3.30279061955e-01 0.00000000000e+00 9.43883330308e-01
3.30279061955e-01 0.00000000000e+00 9.43883330308e-01
3.30279061955e-01 0.00000000000e+00 9.43883330308e-01
2.76665314995e-01 0.00000000000e+00 9.60966338369e-01
3.30279061955e-01 0.00000000000e+00 9.43883330308e-01
3.30279061955e-01 0.00000000000e+00 9.43883330308e-01
3.80374866889e-01 0.00000000000e+00 9.24832395972e-01
3.82847058533e-01 0.00000000000e+00 9.23811739356e-01
3.82847058533e-01 0.00000000000e+00 9.23811739356e-01
4.33883739118e-01 0.00000000000e+00 9.00968867902e-01
3.85315767950e-01 0.00000000000e+00 9.22784784751e-01
3.30279061955e-01 0.00000000000e+00 9.43883330308e-01
3.82847058533e-01 0.00000000000e+00 9.23811739356e-01
6.23489801859e-01 0.00000000000e+00 7.81831482468e-01
5.32032076515e-01 0.00000000000e+00 8.46724199228e-01
4.33883739118e-01 0.00000000000e+00 9.00968867902e-01
4.33883739118e-01 0.00000000000e+00 9.00968867902e-01
5.80994029322e-01 0.00000000000e+00 8.13907819038e-01
5.32032076515e-01 0.00000000000e+00 8.46724199228e-01
5.78815734502e-01 0.00000000000e+00 8.15458365273e-01
4.83563865035e-01 0.00000000000e+00 8.75309081657e-01
5.32032076515e-01 0.00000000000e+00 8.46724199228e-01
4.83563865035e-01 0.00000000000e+00 8.75309081657e-01
4.85903232789e-01 0.00000000000e+00 8.74012613390e-01
6.23489801859e-01 0.00000000000e+00 7.81831482468e-01
5.32032076515e-01 0.00000000000e+00 8.46724199228e-01
4.33883739118e-01 0.00000000000e+00 9.00968867902e-01
5.32032076515e-01 0.00000000000e+00 8.46724199228e-01
5.78815734502e-01 0.00000000000e+00 8.15458365273e-01
4.86149319726e-01 0.00000000000e+00 8.73875757147e-01
5.76402566992e-01 0.00000000000e+00 8.17165883260e-01
5.32032076515e-01 0.00000000000e+00 8.46724199228e-01
4.81221744449e-01 0.00000000000e+00 8.76598900678e-01
4.83563865035e-01 0.00000000000e+00 8.75309081657e-01
7.81831482468e-01 0.00000000000e+00 6.23489801859e-01
6.23489801859e-01 0.00000000000e+00 7.81831482468e-01
7.07106781187e-01 0.00000000000e+00 7.07106781187e-01
7.07106781187e-01 0.00000000000e+00 7.07106781187e-01
6.23489801859e-01 0.00000000000e+00 7.81831482468e-01
6.23489801859e-01 0.00000000000e+00 7.81831482468e-01
6.23489801859e-01 0.00000000000e+00 7.81831482468e-01
5.81223042760e-01 0.00000000000e+00 8.13744293107e-01
6.23489801859e-01 0.00000000000e+00 7.81831482468e-01
6.23489801859e-01 0.00000000000e+00 7.81831482468e-01
5.78815734502e-01 0.00000000000e+00 8.15458365273e-01
7.07106781187e-01 0.00000000000e+00 7.07106781187e-01
6.66214503696e-01 0.00000000000e+00 7.45760172619e-01
7.45760172619e-01 0.00000000000e+00 6.66214503696e-01
7.43787466754e-01 0.00000000000e+00 6.68416190931e-01
6.68416190931e-01 0.00000000000e+00 7.43787466754e-01
7.07106781187e-01 0.00000000000e+00 7.07106781187e-01
6.66214503696e-01 0.00000000000e+00 7.45760172619e-01
6.64007730417e-01 0.00000000000e+00 7.47725707694e-01
6.64218116696e-01 0.00000000000e+00 7.47538824044e-01
6.66214503696e-01 0.00000000000e+00 7.45760172619e-01
5.32032076515e-01 0.00000000000e+00 8.46724199228e-01
5.32032076515e-01 0.00000000000e+00 8.46724199228e-01
5.32032076515e-01 0.00000000000e+00 8.46724199228e-01
5.32032076515e-01 0.00000000000e+00 8.46724199228e-01
4.83563865035e-01 0.00000000000e+00 8.75309081657e-01
5.32032076515e-01 0.00000000000e+00 8.46724199228e-01
5.32032076515e-01 0.00000000000e+00 8.46724199228e-01
5.76632643327e-01 0.00000000000e+00 8.17003546290e-01
5.78815734502e-01 0.00000000000e+00 8.15458365273e-01
5.78815734502e-01 0.00000000000e+00 8.15458365273e-01
6.23489801859e-01 0.00000000000e+00 7.81831482468e-01
5.80994029322e-01 0.00000000000e+00 8.13907819038e-01
5.32032076515e-01 0.00000000000e+00 8.46724199228e-01
5.78815734502e-01 0.00000000000e+00 8.15458365273e-01
7.81831482468e-01 0.00000000000e+00 6.23489801859e-01
7.07106781187e-01 0.00000000000e+00 7.07106781187e-01
6.23489801859e-01 0.00000000000e+00 7.81831482468e-01
6.23489801859e-01 0.00000000000e+00 7.81831482468e-01
7.47538824044e-01 0.00000000000e+00 6.64218116696e-01
7.07106781187e-01 0.00000000000e+00 7.07106781187e-01
7.45760172619e-01 0.00000000000e+00 6.66214503696e-01
6.66214503696e-01 0.00000000000e+00 7.45760172619e-01
7.07106781187e-01 0.00000000000e+00 7.07106781187e-01
6.66214503696e-01 0.00000000000e+00 7.45760172619e-01
6.68206727287e-01 0.00000000000e+00 7.43975651221e-01
7.81831482468e-01 0.00000000000e+00 6.23489801859e-01
7.07106781187e-01 0.00000000000e+00 7.07106781187e-01
6.23489801859e-01 0.00000000000e+00 7.81831482468e-01
7.07106781187e-01 0.00000000000e+00 7.07106781187e-01
7.45760172619e-01 0.00000000000e+00 6.66214503696e-01
6.68416190931e-01 0.00000000000e+00 7.43787466754e-01
7.43787466754e-01 0.00000000000e+00 6.68416190931e-01
7.07106781187e-01 0.00000000000e+00 7.07106781187e-01
6.64218116696e-01 0.00000000000e+00 7.47538824044e-01
6.66214503696e-01 0.00000000000e+00 7.45760172619e-01
9.00968867902e-01 0.00000000000e+00 4.33883739118e-01
7.81831482468e-01 0.00000000000e+00 6.23489801859e-01
8.46724199228e-01 0.00000000000e+00 5.32032076515e-01
8.46724199228e-01 0.00000000000e+00 5.32032076515e-01
7.81831482468e-01 0.00000000000e+00 6.23489801859e-01
7.81831482468e-01 0.00000000000e+00 6.23489801859e-01
7.81831482468e-01 0.00000000000e+00 6.23489801859e-01
7.47725707694e-01 0.00000000000e+00 6.64007730417e-01
7.81831482468e-01 0.00000000000e+00 6.23489801859e-01
7.81831482468e-01 0.00000000000e+00 6.23489801859e-01
7.45760172619e-01 0.00000000000e+00 6.66214503696e-01
8.46724199228e-01 0.00000000000e+00 5.32032076515e-01
8.15458365273e-01 0.00000000000e+00 5.78815734502e-01
8.75309081657e-01 0.00000000000e+00 4.83563865035e-01
8.73875757147e-01 0.00000000000e+00 4.86149319726e-01
8.17165883260e-01 0.00000000000e+00 5.76402566992e-01
8.46724199228e-01 0.00000000000e+00 5.32032076515e-01
8.15458365273e-01 0.00000000000e+00 5.78815734502e-01
8.13744293107e-01 0.00000000000e+00 5.81223042760e-01
8.13907819038e-01 0.00000000000e+00 5.80994029322e-01
8.15458365273e-01 0.00000000000e+00 5.78815734502e-01
7.07106781187e-01 0.00000000000e+00 7.07106781187e-01
7.07106781187e-01 0.00000000000e+00 7.07106781187e-01
7.07106781187e-01 0.00000000000e+00 7.07106781187e-01
7.07106781187e-01 0.00000000000e+00 7.07106781187e-01
6.66214503696e-01 0.00000000000e+00 7.45760172619e-01
7.07106781187e-01 0.00000000000e+00 7.07106781187e-01
7.07106781187e-01 0.00000000000e+00 7.07106781187e-01
7.43975651221e-01 0.00000000000e+00 6.68206727287e-01
7.45760172619e-01 0.00000000000e+00 6.66214503696e-01
7.45760172619e-01 0.00000000000e+00 6.66214503696e-01
7.81831482468e-01 0.00000000000e+00 6.23489801859e-01
7.47538824044e-01 0.00000000000e+00 6.64218116696e-01
7.07106781187e-01 0.00000000000e+00 7.07106781187e-01
7.45760172619e-01 0.00000000000e+00 6.66214503696e-01
9.00968867902e-01 0.00000000000e+00 4.33883739118e-01
8.46724199228e-01 0.00000000000e+00 5.32032076515e-01
7.81831482468e-01 0.00000000000e+00 6.23489801859e-01
7.81831482468e-01 0.00000000000e+00 6.23489801859e-01
8.76598900678e-01 0.00000000000e+00 4.81221744449e-01
8.46724199228e-01 0.00000000000e+00 5.32032076515e-01
8.75309081657e-01 0.00000000000e+00 4.83563865035e-01
8.15458365273e-01 0.00000000000e+00 5.78815734502e-01
8.46724199228e-01 0.00000000000e+00 5.32032076515e-01
8.15458365273e-01 0.00000000000e+00 5.78815734502e-01
8.17003546290e-01 0.00000000000e+00 5.76632643327e-01
9.00968867902e-01 0.00000000000e+00 4.33883739118e-01
8.46724199228e-01 0.00000000000e+00 5.32032076515e-01
7.81831482468e-01 0.00000000000e+00 6.23489801859e-01
8.46724199228e-01 0.00000000000e+00 5.32032076515e-01
8.75309081657e-01 0.00000000000e+00 4.83563865035e-01
8.17165883260e-01 0.00000000000e+00 5.76402566992e-01
8.73875757147e-01 0.00000000000e+00 4.86149319726e-01
8.46724199228e-01 0.00000000000e+00 5.32032076515e-01
8.13907819038e-01 0.00000000000e+00 5.80994029322e-01
8.15458365273e-01 0.00000000000e+00 5.78815734502e-01
9.74927912182e-01 0.00000000000e+00 2.22520933956e-01
9.00968867902e-01 0.00000000000e+00 4.33883739118e-01
9.43883330308e-01 0.00000000000e+00 3.30279061955e-01
9.43883330308e-01 0.00000000000e+00 3.30279061955e-01
9.00968867902e-01 0.00000000000e+00 4.33883739118e-01
9.00968867902e-01 0.00000000000e+00 4.33883739118e-01
9.00968867902e-01 0.00000000000e+00 4.33883739118e-01
8.76734283414e-01 0.00000000000e+00 4.80975047469e-01
9.00968867902e-01 0.00000000000e+00 4.33883739118e-01
9.00968867902e-01 0.00000000000e+00 4.33883739118e-01
8.75309081657e-01 0.00000000000e+00 4.83563865035e-01
9.43883330308e-01 0.00000000000e+00 3.30279061955e-01
9.23811739356e-01 0.00000000000e+00 3.82847058533e-01
9.60966338369e-01 0.00000000000e+00 2.76665314995e-01
9.60144268090e-01 0.00000000000e+00 2.79504891647e-01
9.24939466015e-01 0.00000000000e+00 3.80114435674e-01
9.43883330308e-01 0.00000000000e+00 3.30279061955e-01
9.23811739356e-01 0.00000000000e+00 3.82847058533e-01
9.22676319041e-01 0.00000000000e+00 3.85575427487e-01
9.22784784751e-01 0.00000000000e+00 3.85315767950e-01
9.23811739356e-01 0.00000000000e+00 3.82847058533e-01
8.46724199228e-01 0.00000000000e+00 5.32032076515e-01
8.46724199228e-01 0.00000000000e+00 5.32032076515e-01
8.46724199228e-01 0.00000000000e+00 5.32032076515e-01
8.46724199228e-01 0.00000000000e+00 5.32032076515e-01
8.15458365273e-01 0.00000000000e+00 5.78815734502e-01
8.46724199228e-01 0.00000000000e+00 5.32032076515e-01
8.46724199228e-01 0.00000000000e+00 5.32032076515e-01
8.74012613390e-01 0.00000000000e+00 4.85903232789e-01
8.75309081657e-01 0.00000000000e+00 4.83563865035e-01
8.75309081657e-01 0.00000000000e+00 4.83563865035e-01
9.00968867902e-01 0.00000000000e+00 4.33883739118e-01
8.76598900678e-01 0.00000000000e+00 4.81221744449e-01
8.46724199228e-01 0.00000000000e+00 5.32032076515e-01
8.75309081657e-01 0.00000000000e+00 4.83563865035e-01
9.74927912182e-01 0.00000000000e+00 2.22520933956e-01
9.43883330308e-01 0.00000000000e+00 3.30279061955e-01
9.00968867902e-01 0.00000000000e+00 4.33883739118e-01
9.00968867902e-01 0.00000000000e+00 4.33883739118e-01
9.61702648074e-01 0.00000000000e+00 2.74094904528e-01
9.43883330308e-01 0.00000000000e+00 3.30279061955e-01
9.60966338369e-01 0.00000000000e+00 2.76665314995e-01
9.23811739356e-01 0.00000000000e+00 3.82847058533e-01
9.43883330308e-01 0.00000000000e+00 3.30279061955e-01
9.23811739356e-01 0.00000000000e+00 3.82847058533e-01
9.24832395972e-01 0.00000000000e+00 3.80374866889e-01
9.74927912182e-01 0.00000000000e+00 2.22520933956e-01
9.43883330308e-01 0.00000000000e+00 3.30279061955e-01
9.00968867902e-01 0.00000000000e+00 4.33883739118e-01
9.43883330308e-01 0.00000000000e+00 3.30279061955e-01
9.60966338369e-01 0.00000000000e+00 2.76665314995e-01
9.24939466015e-01 0.00000000000e+00 3.80114435674e-01
9.60144268090e-01 0.00000000000e+00 2.79504891647e-01
9.43883330308e-01 0.00000000000e+00 3.30279061955e-01
9.22784784751e-01 0.00000000000e+00 3.85315767950e-01
9.23811739356e-01 0.00000000000e+00 3.82847058533e-01
1.00000000000e+00 0.00000000000e+00 6.12323399574e-17
9.74927912182e-01 0.00000000000e+00 2.22520933956e-01
9.93712209893e-01 0.00000000000e+00 1.11964476103e-01
9.93712209893e-01 0.00000000000e+00 1.11964476103e-01
9.74927912182e-01 0.00000000000e+00 2.22520933956e-01
9.74927912182e-01 0.00000000000e+00 2.22520933956e-01
9.74927912182e-01 0.00000000000e+00 2.22520933956e-01
9.61779741239e-01 0.00000000000e+00 2.73824267263e-01
9.74927912182e-01 0.00000000000e+00 2.22520933956e-01
9.74927912182e-01 0.00000000000e+00 2.22520933956e-01
9.60966338369e-01 0.00000000000e+00 2.76665314995e-01
9.93712209893e-01 0.00000000000e+00 1.11964476103e-01
9.85841335327e-01 0.00000000000e+00 1.67680832419e-01
9.98436730229e-01 0.00000000000e+00 5.58936108064e-02
9.98267136217e-01 0.00000000000e+00 5.88449211896e-02
9.86332721733e-01 0.00000000000e+00 1.64765779331e-01
9.93712209893e-01 0.00000000000e+00 1.11964476103e-01
9.85841335327e-01 0.00000000000e+00 1.67680832419e-01
9.85341501577e-01 0.00000000000e+00 1.70593450256e-01
9.85389468143e-01 0.00000000000e+00 1.70316165035e-01
9.85841335327e-01 0.00000000000e+00 1.67680832419e-01
9.43883330308e-01 0.00000000000e+00 3.30279061955e-01
9.43883330308e-01 0.00000000000e+00 3.30279061955e-01
9.43883330308e-01 0.00000000000e+00 3.30279061955e-01
9.43883330308e-01 0.00000000000e+00 3.30279061955e-01
9.23811739356e-01 0.00000000000e+00 3.82847058533e-01
9.43883330308e-01 0.00000000000e+00 3.30279061955e-01
9.43883330308e-01 0.00000000000e+00 3.30279061955e-01
9.60222933566e-01 0.00000000000e+00 2.79234521244e-01
9.60966338369e-01 0.00000000000e+00 2.76665314995e-01
9.60966338369e-01 0.00000000000e+00 2.76665314995e-01
9.74927912182e-01 0.00000000000e+00 2.22520933956e-01
9.61702648074e-01 0.00000000000e+00 2.74094904528e-01
9.43883330308e-01 0.00000000000e+00 3.30279061955e-01
9.60966338369e-01 0.00000000000e+00 2.76665314995e-01
1.00000000000e+00 0.00000000000e+00 6.12323399574e-17
9.93712209893e-01 0.00000000000e+00 1.11964476103e-01
9.74927912182e-01 0.00000000000e+00 2.22520933956e-01
9.74927912182e-01 0.00000000000e+00 2.22520933956e-01
9.98582608974e-01 0.00000000000e+00 5.32238015735e-02
9.93712209893e-01 0.00000000000e+00 1.11964476103e-01
9.98436730229e-01 0.00000000000e+00 5.58936108064e-02
9.85841335327e-01 0.00000000000e+00 1.67680832419e-01
9.93712209893e-01 0.00000000000e+00 1.11964476103e-01