<?xml version="1.0" ?> 
<!-- 
# vtk DataFile Version 3.0
-->
<VTKFile type="UnstructuredGrid" version="0.1" compressor="vtkZLibDataCompressor" byte_order="LittleEndian">
  <UnstructuredGrid>
    <FieldData>
      <DataArray type="Float64" Name="TIME" NumberOfTuples="1" format="ascii">
9.999999999999999e-02 
      </DataArray>
    </FieldData>

    <Piece NumberOfPoints="600" NumberOfCells="75" >
      <Points>
        <DataArray type="Float64" NumberOfComponents="3" format="ascii">
-5.000000000000000e+00 -5.000000000000000e+00 5.000000000000000e+00
-5.000000000000000e+00 -5.000000000000000e+00 3.000000000000000e+00
-5.000000000000000e+00 -3.000000000000000e+00 3.000000000000000e+00
-5.000000000000000e+00 -3.000000000000000e+00 5.000000000000000e+00
-3.000000000000000e+00 -5.000000000000000e+00 5.000000000000000e+00
-3.000000000000000e+00 -5.000000000000000e+00 3.000000000000000e+00
-3.000000000000000e+00 -3.000000000000000e+00 3.000000000000000e+00
-3.000000000000000e+00 -3.000000000000000e+00 4.999999999999999e+00
-5.000000000000000e+00 -5.000000000000000e+00 3.000000000000000e+00
-5.000000000000000e+00 -5.000000000000000e+00 1.000000000000000e+00
-5.000000000000000e+00 -3.000000000000000e+00 1.000000000000000e+00
-5.000000000000000e+00 -3.000000000000000e+00 3.000000000000000e+00
-3.000000000000000e+00 -5.000000000000000e+00 3.000000000000000e+00
-3.000000000000000e+00 -5.000000000000000e+00 1.000000000000000e+00
-3.000000000000000e+00 -3.000000000000000e+00 1.000000000000000e+00
-3.000000000000000e+00 -3.000000000000000e+00 3.000000000000000e+00
-5.000000000000000e+00 -5.000000000000000e+00 1.000000000000000e+00
-5.000000000000000e+00 -5.000000000000000e+00 -1.000000000000000e+00
-5.000000000000000e+00 -3.000000000000000e+00 -1.000000000000000e+00
-5.000000000000000e+00 -3.000000000000000e+00 1.000000000000000e+00
-3.000000000000000e+00 -5.000000000000000e+00 1.000000000000000e+00
-3.000000000000000e+00 -5.000000000000000e+00 -1.000000000000000e+00
-3.000000000000000e+00 -3.000000000000000e+00 -1.000000000000000e+00
-3.000000000000000e+00 -3.000000000000000e+00 1.000000000000000e+00
-5.000000000000000e+00 -3.000000000000000e+00 5.000000000000000e+00
-5.000000000000000e+00 -3.000000000000000e+00 3.000000000000000e+00
-5.000000000000000e+00 -1.000000000000000e+00 3.000000000000000e+00
-5.000000000000000e+00 -1.000000000000000e+00 5.000000000000000e+00
-3.000000000000000e+00 -3.000000000000000e+00 4.999999999999999e+00
-3.000000000000000e+00 -3.000000000000000e+00 3.000000000000000e+00
-3.000000000000000e+00 -1.000000000000001e+00 3.000000000000000e+00
-3.000000000000000e+00 -1.000000000000000e+00 5.000000000000000e+00
-5.000000000000000e+00 -3.000000000000000e+00 3.000000000000000e+00
-5.000000000000000e+00 -3.000000000000000e+00 1.000000000000000e+00
-5.000000000000000e+00 -1.000000000000000e+00 1.000000000000000e+00
-5.000000000000000e+00 -1.000000000000000e+00 3.000000000000000e+00
-3.000000000000000e+00 -3.000000000000000e+00 3.000000000000000e+00
-3.000000000000000e+00 -3.000000000000000e+00 1.000000000000000e+00
-3.000000000000000e+00 -1.000000000000000e+00 1.000000000000000e+00
-3.000000000000000e+00 -1.000000000000001e+00 3.000000000000000e+00
-5.000000000000000e+00 -3.000000000000000e+00 1.000000000000000e+00
-5.000000000000000e+00 -3.000000000000000e+00 -1.000000000000000e+00
-5.000000000000000e+00 -1.000000000000000e+00 -1.000000000000000e+00
-5.000000000000000e+00 -1.000000000000000e+00 1.000000000000000e+00
-3.000000000000000e+00 -3.000000000000000e+00 1.000000000000000e+00
-3.000000000000000e+00 -3.000000000000000e+00 -1.000000000000000e+00
-3.000000000000000e+00 -1.000000000000000e+00 -1.000000000000000e+00
-3.000000000000000e+00 -1.000000000000000e+00 1.000000000000000e+00
-5.000000000000000e+00 -1.000000000000000e+00 5.000000000000000e+00
-5.000000000000000e+00 -1.000000000000000e+00 3.000000000000000e+00
-5.000000000000000e+00 1.000000000000000e+00 3.000000000000000e+00
-5.000000000000000e+00 1.000000000000000e+00 5.000000000000000e+00
-3.000000000000000e+00 -1.000000000000000e+00 5.000000000000000e+00
-3.000000000000000e+00 -1.000000000000001e+00 3.000000000000000e+00
-3.000000000000000e+00 1.000000000000000e+00 3.000000000000000e+00
-3.000000000000000e+00 1.000000000000000e+00 5.000000000000000e+00
-5.000000000000000e+00 -1.000000000000000e+00 3.000000000000000e+00
-5.000000000000000e+00 -1.000000000000000e+00 1.000000000000000e+00
-5.000000000000000e+00 1.000000000000000e+00 1.000000000000000e+00
-5.000000000000000e+00 1.000000000000000e+00 3.000000000000000e+00
-3.000000000000000e+00 -1.000000000000001e+00 3.000000000000000e+00
-3.000000000000000e+00 -1.000000000000000e+00 1.000000000000000e+00
-3.000000000000000e+00 1.000000000000000e+00 1.000000000000000e+00
-3.000000000000000e+00 1.000000000000000e+00 3.000000000000000e+00
-5.000000000000000e+00 -1.000000000000000e+00 1.000000000000000e+00
-5.000000000000000e+00 -1.000000000000000e+00 -1.000000000000000e+00
-5.000000000000000e+00 1.000000000000000e+00 -1.000000000000000e+00
-5.000000000000000e+00 1.000000000000000e+00 1.000000000000000e+00
-3.000000000000000e+00 -1.000000000000000e+00 1.000000000000000e+00
-3.000000000000000e+00 -1.000000000000000e+00 -1.000000000000000e+00
-3.000000000000000e+00 1.000000000000000e+00 -1.000000000000000e+00
-3.000000000000000e+00 1.000000000000000e+00 1.000000000000000e+00
-5.000000000000000e+00 1.000000000000000e+00 5.000000000000000e+00
-5.000000000000000e+00 1.000000000000000e+00 3.000000000000000e+00
-5.000000000000000e+00 3.000000000000000e+00 3.000000000000000e+00
-5.000000000000000e+00 3.000000000000000e+00 5.000000000000000e+00
-3.000000000000000e+00 1.000000000000000e+00 5.000000000000000e+00
-3.000000000000000e+00 1.000000000000000e+00 3.000000000000000e+00
-3.000000000000000e+00 3.000000000000000e+00 3.000000000000000e+00
-3.000000000000000e+00 3.000000000000000e+00 5.000000000000000e+00
-5.000000000000000e+00 1.000000000000000e+00 3.000000000000000e+00
-5.000000000000000e+00 1.000000000000000e+00 1.000000000000000e+00
-5.000000000000000e+00 3.000000000000000e+00 1.000000000000000e+00
-5.000000000000000e+00 3.000000000000000e+00 3.000000000000000e+00
-3.000000000000000e+00 1.000000000000000e+00 3.000000000000000e+00
-3.000000000000000e+00 1.000000000000000e+00 1.000000000000000e+00
-3.000000000000000e+00 3.000000000000000e+00 1.000000000000000e+00
-3.000000000000000e+00 3.000000000000000e+00 3.000000000000000e+00
-5.000000000000000e+00 1.000000000000000e+00 1.000000000000000e+00
-5.000000000000000e+00 1.000000000000000e+00 -1.000000000000000e+00
-5.000000000000000e+00 3.000000000000000e+00 -1.000000000000000e+00
-5.000000000000000e+00 3.000000000000000e+00 1.000000000000000e+00
-3.000000000000000e+00 1.000000000000000e+00 1.000000000000000e+00
-3.000000000000000e+00 1.000000000000000e+00 -1.000000000000000e+00
-3.000000000000000e+00 3.000000000000000e+00 -9.999999999999999e-01
-3.000000000000000e+00 3.000000000000000e+00 1.000000000000000e+00
-5.000000000000000e+00 3.000000000000000e+00 5.000000000000000e+00
-5.000000000000000e+00 3.000000000000000e+00 3.000000000000000e+00
-5.000000000000000e+00 5.000000000000000e+00 3.000000000000000e+00
-5.000000000000000e+00 5.000000000000000e+00 5.000000000000000e+00
-3.000000000000000e+00 3.000000000000000e+00 5.000000000000000e+00
-3.000000000000000e+00 3.000000000000000e+00 3.000000000000000e+00
-3.000000000000000e+00 4.999999999999999e+00 3.000000000000000e+00
-3.000000000000000e+00 5.000000000000000e+00 5.000000000000000e+00
-5.000000000000000e+00 3.000000000000000e+00 3.000000000000000e+00
-5.000000000000000e+00 3.000000000000000e+00 1.000000000000000e+00
-5.000000000000000e+00 5.000000000000000e+00 1.000000000000000e+00
-5.000000000000000e+00 5.000000000000000e+00 3.000000000000000e+00
-3.000000000000000e+00 3.000000000000000e+00 3.000000000000000e+00
-3.000000000000000e+00 3.000000000000000e+00 1.000000000000000e+00
-3.000000000000000e+00 5.000000000000000e+00 1.000000000000000e+00
-3.000000000000000e+00 4.999999999999999e+00 3.000000000000000e+00
-5.000000000000000e+00 3.000000000000000e+00 1.000000000000000e+00
-5.000000000000000e+00 3.000000000000000e+00 -1.000000000000000e+00
-5.000000000000000e+00 5.000000000000000e+00 -1.000000000000000e+00
-5.000000000000000e+00 5.000000000000000e+00 1.000000000000000e+00
-3.000000000000000e+00 3.000000000000000e+00 1.000000000000000e+00
-3.000000000000000e+00 3.000000000000000e+00 -9.999999999999999e-01
-3.000000000000000e+00 5.000000000000000e+00 -1.000000000000000e+00
-3.000000000000000e+00 5.000000000000000e+00 1.000000000000000e+00
-3.000000000000000e+00 -5.000000000000000e+00 5.000000000000000e+00
-3.000000000000000e+00 -5.000000000000000e+00 3.000000000000000e+00
-3.000000000000000e+00 -3.000000000000000e+00 3.000000000000000e+00
-3.000000000000000e+00 -3.000000000000000e+00 4.999999999999999e+00
-1.000000000000000e+00 -5.000000000000000e+00 5.000000000000000e+00
-1.000000000000000e+00 -5.000000000000000e+00 3.000000000000000e+00
-1.000000000000000e+00 -3.000000000000000e+00 3.000000000000000e+00
-1.000000000000000e+00 -3.000000000000000e+00 5.000000000000000e+00
-3.000000000000000e+00 -5.000000000000000e+00 3.000000000000000e+00
-3.000000000000000e+00 -5.000000000000000e+00 1.000000000000000e+00
-3.000000000000000e+00 -3.000000000000000e+00 1.000000000000000e+00
-3.000000000000000e+00 -3.000000000000000e+00 3.000000000000000e+00
-1.000000000000000e+00 -5.000000000000000e+00 3.000000000000000e+00
-1.000000000000000e+00 -5.000000000000000e+00 1.000000000000000e+00
-1.000000000000000e+00 -3.000000000000000e+00 1.000000000000000e+00
-1.000000000000000e+00 -3.000000000000000e+00 3.000000000000000e+00
-3.000000000000000e+00 -5.000000000000000e+00 1.000000000000000e+00
-3.000000000000000e+00 -5.000000000000000e+00 -1.000000000000000e+00
-3.000000000000000e+00 -3.000000000000000e+00 -1.000000000000000e+00
-3.000000000000000e+00 -3.000000000000000e+00 1.000000000000000e+00
[...]
  <PointData>
        <DataArray type="Float64" Name="displacement" NumberOfComponents="3" format="ascii">
0.000000000000000e+00 0.000000000000000e+00 0.000000000000000e+00
0.000000000000000e+00 0.000000000000000e+00 0.000000000000000e+00
0.000000000000000e+00 0.000000000000000e+00 0.000000000000000e+00
0.000000000000000e+00 0.000000000000000e+00 0.000000000000000e+00
-4.538264040059894e-04 0.000000000000000e+00 0.000000000000000e+00
-4.538264040056072e-04 0.000000000000000e+00 0.000000000000000e+00
-4.538264040055616e-04 -7.068826473837461e-16 -6.429720669789206e-16
-4.538264040056730e-04 0.000000000000000e+00 0.000000000000000e+00
0.000000000000000e+00 0.000000000000000e+00 0.000000000000000e+00
0.000000000000000e+00 0.000000000000000e+00 0.000000000000000e+00
0.000000000000000e+00 0.000000000000000e+00 0.000000000000000e+00
0.000000000000000e+00 0.000000000000000e+00 0.000000000000000e+00
-4.538264040056072e-04 0.000000000000000e+00 0.000000000000000e+00
-4.538264040055726e-04 0.000000000000000e+00 0.000000000000000e+00
-4.538264040064265e-04 -3.731719584145836e-16 -2.529231195031050e-17
-4.538264040055616e-04 -7.068826473837461e-16 -6.429720669789206e-16
0.000000000000000e+00 0.000000000000000e+00 0.000000000000000e+00
0.000000000000000e+00 0.000000000000000e+00 0.000000000000000e+00
0.000000000000000e+00 0.000000000000000e+00 0.000000000000000e+00
0.000000000000000e+00 0.000000000000000e+00 0.000000000000000e+00
-4.538264040055726e-04 0.000000000000000e+00 0.000000000000000e+00
-4.538264040063082e-04 0.000000000000000e+00 0.000000000000000e+00
-4.538264040062039e-04 1.773557427896145e-16 -7.086128576426333e-17
-4.538264040064265e-04 -3.731719584145836e-16 -2.529231195031050e-17
0.000000000000000e+00 0.000000000000000e+00 0.000000000000000e+00
0.000000000000000e+00 0.000000000000000e+00 0.000000000000000e+00
0.000000000000000e+00 0.000000000000000e+00 0.000000000000000e+00
0.000000000000000e+00 0.000000000000000e+00 0.000000000000000e+00
-4.538264040056730e-04 0.000000000000000e+00 0.000000000000000e+00
-4.538264040055616e-04 -7.068826473837461e-16 -6.429720669789206e-16
-4.538264040060215e-04 1.142505104143914e-16 6.571077815008055e-16
-4.538264040052294e-04 0.000000000000000e+00 0.000000000000000e+00
0.000000000000000e+00 0.000000000000000e+00 0.000000000000000e+00
0.000000000000000e+00 0.000000000000000e+00 0.000000000000000e+00
0.000000000000000e+00 0.000000000000000e+00 0.000000000000000e+00
0.000000000000000e+00 0.000000000000000e+00 0.000000000000000e+00
-4.538264040055616e-04 -7.068826473837461e-16 -6.429720669789206e-16
-4.538264040064265e-04 -3.731719584145836e-16 -2.529231195031050e-17
-4.538264040062671e-04 -7.209911542845887e-17 -1.985084119661553e-16
-4.538264040060215e-04 1.142505104143914e-16 6.571077815008055e-16
0.000000000000000e+00 0.000000000000000e+00 0.000000000000000e+00
0.000000000000000e+00 0.000000000000000e+00 0.000000000000000e+00
0.000000000000000e+00 0.000000000000000e+00 0.000000000000000e+00
0.000000000000000e+00 0.000000000000000e+00 0.000000000000000e+00
-4.538264040064265e-04 -3.731719584145836e-16 -2.529231195031050e-17
-4.538264040062039e-04 1.773557427896145e-16 -7.086128576426333e-17
-4.538264040060556e-04 1.824589821302426e-16 1.163843506393484e-17
-4.538264040062671e-04 -7.209911542845887e-17 -1.985084119661553e-16
0.000000000000000e+00 0.000000000000000e+00 0.000000000000000e+00
0.000000000000000e+00 0.000000000000000e+00 0.000000000000000e+00
0.000000000000000e+00 0.000000000000000e+00 0.000000000000000e+00
0.000000000000000e+00 0.000000000000000e+00 0.000000000000000e+00
-4.538264040052294e-04 0.000000000000000e+00 0.000000000000000e+00
-4.538264040060215e-04 1.142505104143914e-16 6.571077815008055e-16
-4.538264040058720e-04 1.328184626979245e-16 -1.338091609777172e-16
-4.538264040058538e-04 0.000000000000000e+00 0.000000000000000e+00
0.000000000000000e+00 0.000000000000000e+00 0.000000000000000e+00
0.000000000000000e+00 0.000000000000000e+00 0.000000000000000e+00
0.000000000000000e+00 0.000000000000000e+00 0.000000000000000e+00
0.000000000000000e+00 0.000000000000000e+00 0.000000000000000e+00
-4.538264040060215e-04 1.142505104143914e-16 6.571077815008055e-16
-4.538264040062671e-04 -7.209911542845887e-17 -1.985084119661553e-16
-4.538264040059458e-04 1.278394644771285e-16 -5.347745060087409e-16
-4.538264040058720e-04 1.328184626979245e-16 -1.338091609777172e-16
0.000000000000000e+00 0.000000000000000e+00 0.000000000000000e+00
0.000000000000000e+00 0.000000000000000e+00 0.000000000000000e+00
0.000000000000000e+00 0.000000000000000e+00 0.000000000000000e+00
0.000000000000000e+00 0.000000000000000e+00 0.000000000000000e+00
-4.538264040062671e-04 -7.209911542845887e-17 -1.985084119661553e-16
-4.538264040060556e-04 1.824589821302426e-16 1.163843506393484e-17
-4.538264040060583e-04 3.141134639273684e-17 4.721605688985773e-16
-4.538264040059458e-04 1.278394644771285e-16 -5.347745060087409e-16
0.000000000000000e+00 0.000000000000000e+00 0.000000000000000e+00
0.000000000000000e+00 0.000000000000000e+00 0.000000000000000e+00
0.000000000000000e+00 0.000000000000000e+00 0.000000000000000e+00
0.000000000000000e+00 0.000000000000000e+00 0.000000000000000e+00
-4.538264040058538e-04 0.000000000000000e+00 0.000000000000000e+00
-4.538264040058720e-04 1.328184626979245e-16 -1.338091609777172e-16
-4.538264040058883e-04 -3.208940006275103e-17 9.056844457746475e-17
-4.538264040062662e-04 0.000000000000000e+00 0.000000000000000e+00
0.000000000000000e+00 0.000000000000000e+00 0.000000000000000e+00
0.000000000000000e+00 0.000000000000000e+00 0.000000000000000e+00
0.000000000000000e+00 0.000000000000000e+00 0.000000000000000e+00
0.000000000000000e+00 0.000000000000000e+00 0.000000000000000e+00
-4.538264040058720e-04 1.328184626979245e-16 -1.338091609777172e-16
-4.538264040059458e-04 1.278394644771285e-16 -5.347745060087409e-16
-4.538264040061350e-04 3.302357504769335e-16 -2.883778146337524e-18
-4.538264040058883e-04 -3.208940006275103e-17 9.056844457746475e-17
0.000000000000000e+00 0.000000000000000e+00 0.000000000000000e+00
0.000000000000000e+00 0.000000000000000e+00 0.000000000000000e+00
0.000000000000000e+00 0.000000000000000e+00 0.000000000000000e+00
0.000000000000000e+00 0.000000000000000e+00 0.000000000000000e+00
-4.538264040059458e-04 1.278394644771285e-16 -5.347745060087409e-16
-4.538264040060583e-04 3.141134639273684e-17 4.721605688985773e-16
-4.538264040063762e-04 5.334471358503137e-16 -8.841195395966753e-16
-4.538264040061350e-04 3.302357504769335e-16 -2.883778146337524e-18
0.000000000000000e+00 0.000000000000000e+00 0.000000000000000e+00
0.000000000000000e+00 0.000000000000000e+00 0.000000000000000e+00
0.000000000000000e+00 0.000000000000000e+00 0.000000000000000e+00
0.000000000000000e+00 0.000000000000000e+00 0.000000000000000e+00
-4.538264040062662e-04 0.000000000000000e+00 0.000000000000000e+00
-4.538264040058883e-04 -3.208940006275103e-17 9.056844457746475e-17
-4.538264040059309e-04 0.000000000000000e+00 0.000000000000000e+00
-4.538264040050506e-04 0.000000000000000e+00 0.000000000000000e+00
0.000000000000000e+00 0.000000000000000e+00 0.000000000000000e+00
0.000000000000000e+00 0.000000000000000e+00 0.000000000000000e+00
0.000000000000000e+00 0.000000000000000e+00 0.000000000000000e+00
0.000000000000000e+00 0.000000000000000e+00 0.000000000000000e+00
-4.538264040058883e-04 -3.208940006275103e-17 9.056844457746475e-17
-4.538264040061350e-04 3.302357504769335e-16 -2.883778146337524e-18
-4.538264040062267e-04 0.000000000000000e+00 0.000000000000000e+00
-4.538264040059309e-04 0.000000000000000e+00 0.000000000000000e+00
0.000000000000000e+00 0.000000000000000e+00 0.000000000000000e+00
0.000000000000000e+00 0.000000000000000e+00 0.000000000000000e+00
0.000000000000000e+00 0.000000000000000e+00 0.000000000000000e+00
0.000000000000000e+00 0.000000000000000e+00 0.000000000000000e+00
-4.538264040061350e-04 3.302357504769335e-16 -2.883778146337524e-18
-4.538264040063762e-04 5.334471358503137e-16 -8.841195395966753e-16
-4.538264040053611e-04 0.000000000000000e+00 0.000000000000000e+00
-4.538264040062267e-04 0.000000000000000e+00 0.000000000000000e+00
-4.538264040059894e-04 0.000000000000000e+00 0.000000000000000e+00
-4.538264040056072e-04 0.000000000000000e+00 0.000000000000000e+00
-4.538264040055616e-04 -7.068826473837461e-16 -6.429720669789206e-16
-4.538264040056730e-04 0.000000000000000e+00 0.000000000000000e+00
-9.070747024732322e-04 0.000000000000000e+00 0.000000000000000e+00
-9.070747024710747e-04 0.000000000000000e+00 0.000000000000000e+00
-9.070747024716978e-04 3.586067254825191e-16 -1.081744607551052e-15
-9.070747024716112e-04 0.000000000000000e+00 0.000000000000000e+00
-4.538264040056072e-04 0.000000000000000e+00 0.000000000000000e+00
-4.538264040055726e-04 0.000000000000000e+00 0.000000000000000e+00
-4.538264040064265e-04 -3.731719584145836e-16 -2.529231195031050e-17
-4.538264040055616e-04 -7.068826473837461e-16 -6.429720669789206e-16
-9.070747024710747e-04 0.000000000000000e+00 0.000000000000000e+00
-9.070747024728337e-04 0.000000000000000e+00 0.000000000000000e+00
-9.070747024725109e-04 -8.537596991514820e-16 4.013871040802993e-16
-9.070747024716978e-04 3.586067254825191e-16 -1.081744607551052e-15
-4.538264040055726e-04 0.000000000000000e+00 0.000000000000000e+00
-4.538264040063082e-04 0.000000000000000e+00 0.000000000000000e+00
-4.538264040062039e-04 1.773557427896145e-16 -7.086128576426333e-17
-4.538264040064265e-04 -3.731719584145836e-16 -2.529231195031050e-17
-9.070747024728337e-04 0.000000000000000e+00 0.000000000000000e+00
-9.070747024729878e-04 0.000000000000000e+00 0.000000000000000e+00
-9.070747024727602e-04 -5.825287500078618e-17 1.313327777377070e-16
-9.070747024725109e-04 -8.537596991514820e-16 4.013871040802993e-16
-4.538264040056730e-04 0.000000000000000e+00 0.000000000000000e+00
-4.538264040055616e-04 -7.068826473837461e-16 -6.429720669789206e-16
-4.538264040060215e-04 1.142505104143914e-16 6.571077815008055e-16
-4.538264040052294e-04 0.000000000000000e+00 0.000000000000000e+00
-9.070747024716112e-04 0.000000000000000e+00 0.000000000000000e+00
-9.070747024716978e-04 3.586067254825191e-16 -1.081744607551052e-15
-9.070747024720456e-04 -2.731602287290223e-16 5.422189982487820e-16
-9.070747024716054e-04 0.000000000000000e+00 0.000000000000000e+00
-4.538264040055616e-04 -7.068826473837461e-16 -6.429720669789206e-16
-4.538264040064265e-04 -3.731719584145836e-16 -2.529231195031050e-17
-4.538264040062671e-04 -7.209911542845887e-17 -1.985084119661553e-16
-4.538264040060215e-04 1.142505104143914e-16 6.571077815008055e-16
-9.070747024716978e-04 3.586067254825191e-16 -1.081744607551052e-15
-9.070747024725109e-04 -8.537596991514820e-16 4.013871040802993e-16
-9.070747024723988e-04 2.662808120373158e-16 4.120008092105021e-17
-9.070747024720456e-04 -2.731602287290223e-16 5.422189982487820e-16
-4.538264040064265e-04 -3.731719584145836e-16 -2.529231195031050e-17
-4.538264040062039e-04 1.773557427896145e-16 -7.086128576426333e-17
-4.538264040060556e-04 1.824589821302426e-16 1.163843506393484e-17
-4.538264040062671e-04 -7.209911542845887e-17 -1.985084119661553e-16
-9.070747024725109e-04 -8.537596991514820e-16 4.013871040802993e-16
-9.070747024727602e-04 -5.825287500078618e-17 1.313327777377070e-16
-9.070747024717782e-04 8.526121462556483e-16 8.488185425459381e-16
-9.070747024723988e-04 2.662808120373158e-16 4.120008092105021e-17
-4.538264040052294e-04 0.000000000000000e+00 0.000000000000000e+00
-4.538264040060215e-04 1.142505104143914e-16 6.571077815008055e-16
-4.538264040058720e-04 1.328184626979245e-16 -1.338091609777172e-16
-4.538264040058538e-04 0.000000000000000e+00 0.000000000000000e+00
-9.070747024716054e-04 0.000000000000000e+00 0.000000000000000e+00
-9.070747024720456e-04 -2.731602287290223e-16 5.422189982487820e-16
-9.070747024719665e-04 -5.962230326379781e-17 2.537987506609473e-17
-9.070747024716363e-04 0.000000000000000e+00 0.000000000000000e+00
-4.538264040060215e-04 1.142505104143914e-16 6.571077815008055e-16
-4.538264040062671e-04 -7.209911542845887e-17 -1.985084119661553e-16
-4.538264040059458e-04 1.278394644771285e-16 -5.347745060087409e-16
-4.538264040058720e-04 1.328184626979245e-16 -1.338091609777172e-16
-9.070747024720456e-04 -2.731602287290223e-16 5.422189982487820e-16
-9.070747024723988e-04 2.662808120373158e-16 4.120008092105021e-17
-9.070747024718679e-04 -7.559355988253263e-18 -2.789205591450488e-16
-9.070747024719665e-04 -5.962230326379781e-17 2.537987506609473e-17
-4.538264040062671e-04 -7.209911542845887e-17 -1.985084119661553e-16
-4.538264040060556e-04 1.824589821302426e-16 1.163843506393484e-17
-4.538264040060583e-04 3.141134639273684e-17 4.721605688985773e-16
-4.538264040059458e-04 1.278394644771285e-16 -5.347745060087409e-16
-9.070747024723988e-04 2.662808120373158e-16 4.120008092105021e-17
-9.070747024717782e-04 8.526121462556483e-16 8.488185425459381e-16
-9.070747024725828e-04 2.067212669242185e-16 1.449160282089165e-16
-9.070747024718679e-04 -7.559355988253263e-18 -2.789205591450488e-16
-4.538264040058538e-04 0.000000000000000e+00 0.000000000000000e+00
-4.538264040058720e-04 1.328184626979245e-16 -1.338091609777172e-16
-4.538264040058883e-04 -3.208940006275103e-17 9.056844457746475e-17
-4.538264040062662e-04 0.000000000000000e+00 0.000000000000000e+00
-9.070747024716363e-04 0.000000000000000e+00 0.000000000000000e+00
-9.070747024719665e-04 -5.962230326379781e-17 2.537987506609473e-17
-9.070747024725196e-04 -1.087746508101821e-16 1.299273589715637e-17
-9.070747024719744e-04 0.000000000000000e+00 0.000000000000000e+00
-4.538264040058720e-04 1.328184626979245e-16 -1.338091609777172e-16
-4.538264040059458e-04 1.278394644771285e-16 -5.347745060087409e-16
-4.538264040061350e-04 3.302357504769335e-16 -2.883778146337524e-18
-4.538264040058883e-04 -3.208940006275103e-17 9.056844457746475e-17
-9.070747024719665e-04 -5.962230326379781e-17 2.537987506609473e-17
-9.070747024718679e-04 -7.559355988253263e-18 -2.789205591450488e-16
-9.070747024722045e-04 4.834554437652017e-16 2.205986571015675e-17
-9.070747024725196e-04 -1.087746508101821e-16 1.299273589715637e-17
-4.538264040059458e-04 1.278394644771285e-16 -5.347745060087409e-16
-4.538264040060583e-04 3.141134639273684e-17 4.721605688985773e-16
-4.538264040063762e-04 5.334471358503137e-16 -8.841195395966753e-16
-4.538264040061350e-04 3.302357504769335e-16 -2.883778146337524e-18
-9.070747024718679e-04 -7.559355988253263e-18 -2.789205591450488e-16
-9.070747024725828e-04 2.067212669242185e-16 1.449160282089165e-16
-9.070747024725466e-04 1.632011842837341e-16 -2.193243065865742e-16
-9.070747024722045e-04 4.834554437652017e-16 2.205986571015675e-17
-4.538264040062662e-04 0.000000000000000e+00 0.000000000000000e+00
-4.538264040058883e-04 -3.208940006275103e-17 9.056844457746475e-17
-4.538264040059309e-04 0.000000000000000e+00 0.000000000000000e+00
-4.538264040050506e-04 0.000000000000000e+00 0.000000000000000e+00
-9.070747024719744e-04 0.000000000000000e+00 0.000000000000000e+00
-9.070747024725196e-04 -1.087746508101821e-16 1.299273589715637e-17
-9.070747024720005e-04 0.000000000000000e+00 0.000000000000000e+00
-9.070747024722217e-04 0.000000000000000e+00 0.000000000000000e+00
-4.538264040058883e-04 -3.208940006275103e-17 9.056844457746475e-17
-4.538264040061350e-04 3.302357504769335e-16 -2.883778146337524e-18
-4.538264040062267e-04 0.000000000000000e+00 0.000000000000000e+00
-4.538264040059309e-04 0.000000000000000e+00 0.000000000000000e+00
-9.070747024725196e-04 -1.087746508101821e-16 1.299273589715637e-17
-9.070747024722045e-04 4.834554437652017e-16 2.205986571015675e-17
-9.070747024719516e-04 0.000000000000000e+00 0.000000000000000e+00
-9.070747024720005e-04 0.000000000000000e+00 0.000000000000000e+00
-4.538264040061350e-04 3.302357504769335e-16 -2.883778146337524e-18
-4.538264040063762e-04 5.334471358503137e-16 -8.841195395966753e-16
-4.538264040053611e-04 0.000000000000000e+00 0.000000000000000e+00
-4.538264040062267e-04 0.000000000000000e+00 0.000000000000000e+00
-9.070747024722045e-04 4.834554437652017e-16 2.205986571015675e-17
-9.070747024725466e-04 1.632011842837341e-16 -2.193243065865742e-16
-9.070747024720985e-04 0.000000000000000e+00 0.000000000000000e+00
-9.070747024719516e-04 0.000000000000000e+00 0.000000000000000e+00
-9.070747024732322e-04 0.000000000000000e+00 0.000000000000000e+00
-9.070747024710747e-04 0.000000000000000e+00 0.000000000000000e+00
-9.070747024716978e-04 3.586067254825191e-16 -1.081744607551052e-15
-9.070747024716112e-04 0.000000000000000e+00 0.000000000000000e+00
-1.360466801259546e-03 0.000000000000000e+00 0.000000000000000e+00
-1.360466801260529e-03 0.000000000000000e+00 0.000000000000000e+00
-1.360466801260605e-03 5.443002259599680e-16 -2.066403834542116e-16
-1.360466801260830e-03 0.000000000000000e+00 0.000000000000000e+00
-9.070747024710747e-04 0.000000000000000e+00 0.000000000000000e+00
-9.070747024728337e-04 0.000000000000000e+00 0.000000000000000e+00
-9.070747024725109e-04 -8.537596991514820e-16 4.013871040802993e-16
-9.070747024716978e-04 3.586067254825191e-16 -1.081744607551052e-15
-1.360466801260529e-03 0.000000000000000e+00 0.000000000000000e+00
-1.360466801260383e-03 0.000000000000000e+00 0.000000000000000e+00
-1.360466801260502e-03 -1.735118935903439e-16 -1.000155815767734e-16
-1.360466801260605e-03 5.443002259599680e-16 -2.066403834542116e-16
-9.070747024728337e-04 0.000000000000000e+00 0.000000000000000e+00
-9.070747024729878e-04 0.000000000000000e+00 0.000000000000000e+00
-9.070747024727602e-04 -5.825287500078618e-17 1.313327777377070e-16
-9.070747024725109e-04 -8.537596991514820e-16 4.013871040802993e-16
-1.360466801260383e-03 0.000000000000000e+00 0.000000000000000e+00
-1.360466801260876e-03 0.000000000000000e+00 0.000000000000000e+00
-1.360466801260828e-03 6.928654483740025e-16 2.380414875816993e-16
-1.360466801260502e-03 -1.735118935903439e-16 -1.000155815767734e-16
-9.070747024716112e-04 0.000000000000000e+00 0.000000000000000e+00
-9.070747024716978e-04 3.586067254825191e-16 -1.081744607551052e-15
-9.070747024720456e-04 -2.731602287290223e-16 5.422189982487820e-16
-9.070747024716054e-04 0.000000000000000e+00 0.000000000000000e+00
-1.360466801260830e-03 0.000000000000000e+00 0.000000000000000e+00
-1.360466801260605e-03 5.443002259599680e-16 -2.066403834542116e-16
-1.360466801261955e-03 2.789579797188469e-16 -3.974886524252374e-16
-1.360466801260681e-03 0.000000000000000e+00 0.000000000000000e+00
-9.070747024716978e-04 3.586067254825191e-16 -1.081744607551052e-15
-9.070747024725109e-04 -8.537596991514820e-16 4.013871040802993e-16
-9.070747024723988e-04 2.662808120373158e-16 4.120008092105021e-17
-9.070747024720456e-04 -2.731602287290223e-16 5.422189982487820e-16
-1.360466801260605e-03 5.443002259599680e-16 -2.066403834542116e-16
-1.360466801260502e-03 -1.735118935903439e-16 -1.000155815767734e-16
-1.360466801261187e-03 5.202641177814105e-16 -7.256286863981029e-17
-1.360466801261955e-03 2.789579797188469e-16 -3.974886524252374e-16
-9.070747024725109e-04 -8.537596991514820e-16 4.013871040802993e-16
-9.070747024727602e-04 -5.825287500078618e-17 1.313327777377070e-16
-9.070747024717782e-04 8.526121462556483e-16 8.488185425459381e-16
-9.070747024723988e-04 2.662808120373158e-16 4.120008092105021e-17
-1.360466801260502e-03 -1.735118935903439e-16 -1.000155815767734e-16
-1.360466801260828e-03 6.928654483740025e-16 2.380414875816993e-16
-1.360466801260658e-03 6.929418900891907e-16 8.133836756597542e-17
-1.360466801261187e-03 5.202641177814105e-16 -7.256286863981029e-17
-9.070747024716054e-04 0.000000000000000e+00 0.000000000000000e+00
-9.070747024720456e-04 -2.731602287290223e-16 5.422189982487820e-16
-9.070747024719665e-04 -5.962230326379781e-17 2.537987506609473e-17
-9.070747024716363e-04 0.000000000000000e+00 0.000000000000000e+00
-1.360466801260681e-03 0.000000000000000e+00 0.000000000000000e+00
-1.360466801261955e-03 2.789579797188469e-16 -3.974886524252374e-16
-1.360466801261005e-03 3.509196913181083e-17 1.690101610866675e-16