<?xml version="1.0" ?> 
<!-- 
# vtk DataFile Version 3.0
-->
<VTKFile type="UnstructuredGrid" version="0.1" compressor="vtkZLibDataCompressor" byte_order="LittleEndian">
  <UnstructuredGrid>
    <FieldData>
      <DataArray type="Float64" Name="TIME" NumberOfTuples="1" format="ascii">
9.999999999999999e-02 
      </DataArray>
    </FieldData>

    <Piece NumberOfPoints="400" NumberOfCells="50" >
      <Points>
        <DataArray type="Float64" NumberOfComponents="3" format="ascii">
-5.000000000000000e+00 -5.000000000000000e+00 -1.000000000000000e+00
-5.000000000000000e+00 -5.000000000000000e+00 -3.000000000000000e+00
-5.000000000000000e+00 -3.000000000000000e+00 -3.000000000000000e+00
-5.000000000000000e+00 -3.000000000000000e+00 -1.000000000000000e+00
-3.000000000000000e+00 -5.000000000000000e+00 -1.000000000000000e+00
-3.000000000000000e+00 -5.000000000000000e+00 -3.000000000000000e+00
-3.000000000000000e+00 -3.000000000000000e+00 -3.000000000000000e+00
-3.000000000000000e+00 -3.000000000000000e+00 -1.000000000000000e+00
-5.000000000000000e+00 -5.000000000000000e+00 -3.000000000000000e+00
-5.000000000000000e+00 -5.000000000000000e+00 -5.000000000000000e+00
-5.000000000000000e+00 -3.000000000000000e+00 -5.000000000000000e+00
-5.000000000000000e+00 -3.000000000000000e+00 -3.000000000000000e+00
-3.000000000000000e+00 -5.000000000000000e+00 -3.000000000000000e+00
-3.000000000000000e+00 -5.000000000000000e+00 -5.000000000000000e+00
-3.000000000000000e+00 -3.000000000000000e+00 -5.000000000000000e+00
-3.000000000000000e+00 -3.000000000000000e+00 -3.000000000000000e+00
-5.000000000000000e+00 -3.000000000000000e+00 -1.000000000000000e+00
-5.000000000000000e+00 -3.000000000000000e+00 -3.000000000000000e+00
-5.000000000000000e+00 -1.000000000000000e+00 -3.000000000000000e+00
-5.000000000000000e+00 -1.000000000000000e+00 -1.000000000000000e+00
-3.000000000000000e+00 -3.000000000000000e+00 -1.000000000000000e+00
-3.000000000000000e+00 -3.000000000000000e+00 -3.000000000000000e+00
-3.000000000000000e+00 -1.000000000000000e+00 -3.000000000000000e+00
-3.000000000000000e+00 -1.000000000000000e+00 -1.000000000000000e+00
-5.000000000000000e+00 -3.000000000000000e+00 -3.000000000000000e+00
-5.000000000000000e+00 -3.000000000000000e+00 -5.000000000000000e+00
-5.000000000000000e+00 -1.000000000000000e+00 -5.000000000000000e+00
-5.000000000000000e+00 -1.000000000000000e+00 -3.000000000000000e+00
-3.000000000000000e+00 -3.000000000000000e+00 -3.000000000000000e+00
-3.000000000000000e+00 -3.000000000000000e+00 -5.000000000000000e+00
-3.000000000000000e+00 -1.000000000000000e+00 -5.000000000000000e+00
-3.000000000000000e+00 -1.000000000000000e+00 -3.000000000000000e+00
-5.000000000000000e+00 -1.000000000000000e+00 -1.000000000000000e+00
-5.000000000000000e+00 -1.000000000000000e+00 -3.000000000000000e+00
-5.000000000000000e+00 1.000000000000000e+00 -3.000000000000000e+00
-5.000000000000000e+00 1.000000000000000e+00 -1.000000000000000e+00
-3.000000000000000e+00 -1.000000000000000e+00 -1.000000000000000e+00
-3.000000000000000e+00 -1.000000000000000e+00 -3.000000000000000e+00
-3.000000000000000e+00 1.000000000000000e+00 -3.000000000000000e+00
-3.000000000000000e+00 1.000000000000000e+00 -1.000000000000000e+00
-5.000000000000000e+00 -1.000000000000000e+00 -3.000000000000000e+00
-5.000000000000000e+00 -1.000000000000000e+00 -5.000000000000000e+00
-5.000000000000000e+00 1.000000000000000e+00 -5.000000000000000e+00
-5.000000000000000e+00 1.000000000000000e+00 -3.000000000000000e+00
-3.000000000000000e+00 -1.000000000000000e+00 -3.000000000000000e+00
-3.000000000000000e+00 -1.000000000000000e+00 -5.000000000000000e+00
-3.000000000000000e+00 1.000000000000000e+00 -5.000000000000000e+00
-3.000000000000000e+00 1.000000000000000e+00 -3.000000000000000e+00
-5.000000000000000e+00 1.000000000000000e+00 -1.000000000000000e+00
-5.000000000000000e+00 1.000000000000000e+00 -3.000000000000000e+00
-5.000000000000000e+00 3.000000000000000e+00 -3.000000000000000e+00
-5.000000000000000e+00 3.000000000000000e+00 -1.000000000000000e+00
-3.000000000000000e+00 1.000000000000000e+00 -1.000000000000000e+00
-3.000000000000000e+00 1.000000000000000e+00 -3.000000000000000e+00
-3.000000000000000e+00 3.000000000000000e+00 -3.000000000000000e+00
-3.000000000000000e+00 3.000000000000000e+00 -9.999999999999999e-01
-5.000000000000000e+00 1.000000000000000e+00 -3.000000000000000e+00
-5.000000000000000e+00 1.000000000000000e+00 -5.000000000000000e+00
-5.000000000000000e+00 3.000000000000000e+00 -5.000000000000000e+00
-5.000000000000000e+00 3.000000000000000e+00 -3.000000000000000e+00
-3.000000000000000e+00 1.000000000000000e+00 -3.000000000000000e+00
-3.000000000000000e+00 1.000000000000000e+00 -5.000000000000000e+00
-3.000000000000000e+00 3.000000000000000e+00 -4.999999999999999e+00
-3.000000000000000e+00 3.000000000000000e+00 -3.000000000000000e+00
-5.000000000000000e+00 3.000000000000000e+00 -1.000000000000000e+00
-5.000000000000000e+00 3.000000000000000e+00 -3.000000000000000e+00
-5.000000000000000e+00 5.000000000000000e+00 -3.000000000000000e+00
-5.000000000000000e+00 5.000000000000000e+00 -1.000000000000000e+00
-3.000000000000000e+00 3.000000000000000e+00 -9.999999999999999e-01
-3.000000000000000e+00 3.000000000000000e+00 -3.000000000000000e+00
-3.000000000000000e+00 5.000000000000000e+00 -3.000000000000000e+00
-3.000000000000000e+00 5.000000000000000e+00 -1.000000000000000e+00
-5.000000000000000e+00 3.000000000000000e+00 -3.000000000000000e+00
-5.000000000000000e+00 3.000000000000000e+00 -5.000000000000000e+00
-5.000000000000000e+00 5.000000000000000e+00 -5.000000000000000e+00
-5.000000000000000e+00 5.000000000000000e+00 -3.000000000000000e+00
-3.000000000000000e+00 3.000000000000000e+00 -3.000000000000000e+00
-3.000000000000000e+00 3.000000000000000e+00 -4.999999999999999e+00
-3.000000000000000e+00 5.000000000000000e+00 -5.000000000000000e+00
-3.000000000000000e+00 5.000000000000000e+00 -3.000000000000000e+00
-3.000000000000000e+00 -5.000000000000000e+00 -1.000000000000000e+00
-3.000000000000000e+00 -5.000000000000000e+00 -3.000000000000000e+00
-3.000000000000000e+00 -3.000000000000000e+00 -3.000000000000000e+00
-3.000000000000000e+00 -3.000000000000000e+00 -1.000000000000000e+00
-1.000000000000000e+00 -5.000000000000000e+00 -1.000000000000000e+00
-1.000000000000000e+00 -5.000000000000000e+00 -3.000000000000000e+00
-1.000000000000000e+00 -3.000000000000000e+00 -3.000000000000000e+00
-1.000000000000000e+00 -3.000000000000000e+00 -1.000000000000000e+00
-3.000000000000000e+00 -5.000000000000000e+00 -3.000000000000000e+00
-3.000000000000000e+00 -5.000000000000000e+00 -5.000000000000000e+00
-3.000000000000000e+00 -3.000000000000000e+00 -5.000000000000000e+00
-3.000000000000000e+00 -3.000000000000000e+00 -3.000000000000000e+00
-1.000000000000000e+00 -5.000000000000000e+00 -3.000000000000000e+00
-1.000000000000000e+00 -5.000000000000000e+00 -5.000000000000000e+00
-1.000000000000000e+00 -3.000000000000000e+00 -5.000000000000000e+00
-1.000000000000000e+00 -3.000000000000000e+00 -3.000000000000000e+00
-3.000000000000000e+00 -3.000000000000000e+00 -1.000000000000000e+00
-3.000000000000000e+00 -3.000000000000000e+00 -3.000000000000000e+00
-3.000000000000000e+00 -1.000000000000000e+00 -3.000000000000000e+00
-3.000000000000000e+00 -1.000000000000000e+00 -1.000000000000000e+00
-1.000000000000000e+00 -3.000000000000000e+00 -1.000000000000000e+00
-1.000000000000000e+00 -3.000000000000000e+00 -3.000000000000000e+00
-1.000000000000000e+00 -1.000000000000000e+00 -3.000000000000000e+00
-1.000000000000000e+00 -1.000000000000000e+00 -1.000000000000000e+00
-3.000000000000000e+00 -3.000000000000000e+00 -3.000000000000000e+00
-3.000000000000000e+00 -3.000000000000000e+00 -5.000000000000000e+00
-3.000000000000000e+00 -1.000000000000000e+00 -5.000000000000000e+00
-3.000000000000000e+00 -1.000000000000000e+00 -3.000000000000000e+00
-1.000000000000000e+00 -3.000000000000000e+00 -3.000000000000000e+00
-1.000000000000000e+00 -3.000000000000000e+00 -5.000000000000000e+00
-1.000000000000000e+00 -1.000000000000000e+00 -5.000000000000000e+00
-1.000000000000000e+00 -1.000000000000000e+00 -3.000000000000000e+00
-3.000000000000000e+00 -1.000000000000000e+00 -1.000000000000000e+00
-3.000000000000000e+00 -1.000000000000000e+00 -3.000000000000000e+00
-3.000000000000000e+00 1.000000000000000e+00 -3.000000000000000e+00
-3.000000000000000e+00 1.000000000000000e+00 -1.000000000000000e+00
-1.000000000000000e+00 -1.000000000000000e+00 -1.000000000000000e+00
-1.000000000000000e+00 -1.000000000000000e+00 -3.000000000000000e+00
-1.000000000000000e+00 1.000000000000000e+00 -3.000000000000000e+00
-1.000000000000000e+00 1.000000000000000e+00 -1.000000000000000e+00
-3.000000000000000e+00 -1.000000000000000e+00 -3.000000000000000e+00
-3.000000000000000e+00 -1.000000000000000e+00 -5.000000000000000e+00
-3.000000000000000e+00 1.000000000000000e+00 -5.000000000000000e+00
-3.000000000000000e+00 1.000000000000000e+00 -3.000000000000000e+00
-1.000000000000000e+00 -1.000000000000000e+00 -3.000000000000000e+00
-1.000000000000000e+00 -1.000000000000000e+00 -5.000000000000000e+00
-1.000000000000000e+00 1.000000000000000e+00 -5.000000000000000e+00
-1.000000000000000e+00 1.000000000000000e+00 -3.000000000000000e+00
-3.000000000000000e+00 1.000000000000000e+00 -1.000000000000000e+00
-3.000000000000000e+00 1.000000000000000e+00 -3.000000000000000e+00
-3.000000000000000e+00 3.000000000000000e+00 -3.000000000000000e+00
-3.000000000000000e+00 3.000000000000000e+00 -9.999999999999999e-01
-1.000000000000000e+00 1.000000000000000e+00 -1.000000000000000e+00
-1.000000000000000e+00 1.000000000000000e+00 -3.000000000000000e+00
-1.000000000000000e+00 3.000000000000000e+00 -3.000000000000000e+00
-1.000000000000000e+00 3.000000000000000e+00 -1.000000000000000e+00
-3.000000000000000e+00 1.000000000000000e+00 -3.000000000000000e+00
-3.000000000000000e+00 1.000000000000000e+00 -5.000000000000000e+00
[...]
  <PointData>
        <DataArray type="Float64" Name="displacement" NumberOfComponents="3" format="ascii">
0.000000000000000e+00 0.000000000000000e+00 0.000000000000000e+00
0.000000000000000e+00 0.000000000000000e+00 0.000000000000000e+00
0.000000000000000e+00 0.000000000000000e+00 0.000000000000000e+00
0.000000000000000e+00 0.000000000000000e+00 0.000000000000000e+00
-4.538264040063082e-04 0.000000000000000e+00 0.000000000000000e+00
-4.538264040062460e-04 0.000000000000000e+00 0.000000000000000e+00
-4.538264040064540e-04 -8.372969312996287e-17 -1.403475913185627e-16
-4.538264040062039e-04 1.773557427896145e-16 -7.086128576426333e-17
0.000000000000000e+00 0.000000000000000e+00 0.000000000000000e+00
0.000000000000000e+00 0.000000000000000e+00 0.000000000000000e+00
0.000000000000000e+00 0.000000000000000e+00 0.000000000000000e+00
0.000000000000000e+00 0.000000000000000e+00 0.000000000000000e+00
-4.538264040062460e-04 0.000000000000000e+00 0.000000000000000e+00
-4.538264040071640e-04 0.000000000000000e+00 0.000000000000000e+00
-4.538264040060723e-04 0.000000000000000e+00 0.000000000000000e+00
-4.538264040064540e-04 -8.372969312996287e-17 -1.403475913185627e-16
0.000000000000000e+00 0.000000000000000e+00 0.000000000000000e+00
0.000000000000000e+00 0.000000000000000e+00 0.000000000000000e+00
0.000000000000000e+00 0.000000000000000e+00 0.000000000000000e+00
0.000000000000000e+00 0.000000000000000e+00 0.000000000000000e+00
-4.538264040062039e-04 1.773557427896145e-16 -7.086128576426333e-17
-4.538264040064540e-04 -8.372969312996287e-17 -1.403475913185627e-16
-4.538264040061506e-04 2.732249986673532e-16 2.814080418027969e-16
-4.538264040060556e-04 1.824589821302426e-16 1.163843506393484e-17
0.000000000000000e+00 0.000000000000000e+00 0.000000000000000e+00
0.000000000000000e+00 0.000000000000000e+00 0.000000000000000e+00
0.000000000000000e+00 0.000000000000000e+00 0.000000000000000e+00
0.000000000000000e+00 0.000000000000000e+00 0.000000000000000e+00
-4.538264040064540e-04 -8.372969312996287e-17 -1.403475913185627e-16
-4.538264040060723e-04 0.000000000000000e+00 0.000000000000000e+00
-4.538264040069669e-04 0.000000000000000e+00 0.000000000000000e+00
-4.538264040061506e-04 2.732249986673532e-16 2.814080418027969e-16
0.000000000000000e+00 0.000000000000000e+00 0.000000000000000e+00
0.000000000000000e+00 0.000000000000000e+00 0.000000000000000e+00
0.000000000000000e+00 0.000000000000000e+00 0.000000000000000e+00
0.000000000000000e+00 0.000000000000000e+00 0.000000000000000e+00
-4.538264040060556e-04 1.824589821302426e-16 1.163843506393484e-17
-4.538264040061506e-04 2.732249986673532e-16 2.814080418027969e-16
-4.538264040068264e-04 1.531912376700706e-17 2.554081096118960e-16
-4.538264040060583e-04 3.141134639273684e-17 4.721605688985773e-16
0.000000000000000e+00 0.000000000000000e+00 0.000000000000000e+00
0.000000000000000e+00 0.000000000000000e+00 0.000000000000000e+00
0.000000000000000e+00 0.000000000000000e+00 0.000000000000000e+00
0.000000000000000e+00 0.000000000000000e+00 0.000000000000000e+00
-4.538264040061506e-04 2.732249986673532e-16 2.814080418027969e-16
-4.538264040069669e-04 0.000000000000000e+00 0.000000000000000e+00
-4.538264040061224e-04 0.000000000000000e+00 0.000000000000000e+00
-4.538264040068264e-04 1.531912376700706e-17 2.554081096118960e-16
0.000000000000000e+00 0.000000000000000e+00 0.000000000000000e+00
0.000000000000000e+00 0.000000000000000e+00 0.000000000000000e+00
0.000000000000000e+00 0.000000000000000e+00 0.000000000000000e+00
0.000000000000000e+00 0.000000000000000e+00 0.000000000000000e+00
-4.538264040060583e-04 3.141134639273684e-17 4.721605688985773e-16
-4.538264040068264e-04 1.531912376700706e-17 2.554081096118960e-16
-4.538264040050574e-04 7.125004599597473e-16 -8.507794248162261e-16
-4.538264040063762e-04 5.334471358503137e-16 -8.841195395966753e-16
0.000000000000000e+00 0.000000000000000e+00 0.000000000000000e+00
0.000000000000000e+00 0.000000000000000e+00 0.000000000000000e+00
0.000000000000000e+00 0.000000000000000e+00 0.000000000000000e+00
0.000000000000000e+00 0.000000000000000e+00 0.000000000000000e+00
-4.538264040068264e-04 1.531912376700706e-17 2.554081096118960e-16
-4.538264040061224e-04 0.000000000000000e+00 0.000000000000000e+00
-4.538264040061528e-04 0.000000000000000e+00 0.000000000000000e+00
-4.538264040050574e-04 7.125004599597473e-16 -8.507794248162261e-16
0.000000000000000e+00 0.000000000000000e+00 0.000000000000000e+00
0.000000000000000e+00 0.000000000000000e+00 0.000000000000000e+00
0.000000000000000e+00 0.000000000000000e+00 0.000000000000000e+00
0.000000000000000e+00 0.000000000000000e+00 0.000000000000000e+00
-4.538264040063762e-04 5.334471358503137e-16 -8.841195395966753e-16
-4.538264040050574e-04 7.125004599597473e-16 -8.507794248162261e-16
-4.538264040051643e-04 0.000000000000000e+00 0.000000000000000e+00
-4.538264040053611e-04 0.000000000000000e+00 0.000000000000000e+00
0.000000000000000e+00 0.000000000000000e+00 0.000000000000000e+00
0.000000000000000e+00 0.000000000000000e+00 0.000000000000000e+00
0.000000000000000e+00 0.000000000000000e+00 0.000000000000000e+00
0.000000000000000e+00 0.000000000000000e+00 0.000000000000000e+00
-4.538264040050574e-04 7.125004599597473e-16 -8.507794248162261e-16
-4.538264040061528e-04 0.000000000000000e+00 0.000000000000000e+00
-4.538264040065209e-04 0.000000000000000e+00 0.000000000000000e+00
-4.538264040051643e-04 0.000000000000000e+00 0.000000000000000e+00
-4.538264040063082e-04 0.000000000000000e+00 0.000000000000000e+00
-4.538264040062460e-04 0.000000000000000e+00 0.000000000000000e+00
-4.538264040064540e-04 -8.372969312996287e-17 -1.403475913185627e-16
-4.538264040062039e-04 1.773557427896145e-16 -7.086128576426333e-17
-9.070747024729878e-04 0.000000000000000e+00 0.000000000000000e+00
-9.070747024715400e-04 0.000000000000000e+00 0.000000000000000e+00
-9.070747024726903e-04 2.865672225784298e-17 5.901092712356948e-16
-9.070747024727602e-04 -5.825287500078618e-17 1.313327777377070e-16
-4.538264040062460e-04 0.000000000000000e+00 0.000000000000000e+00
-4.538264040071640e-04 0.000000000000000e+00 0.000000000000000e+00
-4.538264040060723e-04 0.000000000000000e+00 0.000000000000000e+00
-4.538264040064540e-04 -8.372969312996287e-17 -1.403475913185627e-16
-9.070747024715400e-04 0.000000000000000e+00 0.000000000000000e+00
-9.070747024721881e-04 0.000000000000000e+00 0.000000000000000e+00
-9.070747024723520e-04 0.000000000000000e+00 0.000000000000000e+00
-9.070747024726903e-04 2.865672225784298e-17 5.901092712356948e-16
-4.538264040062039e-04 1.773557427896145e-16 -7.086128576426333e-17
-4.538264040064540e-04 -8.372969312996287e-17 -1.403475913185627e-16
-4.538264040061506e-04 2.732249986673532e-16 2.814080418027969e-16
-4.538264040060556e-04 1.824589821302426e-16 1.163843506393484e-17
-9.070747024727602e-04 -5.825287500078618e-17 1.313327777377070e-16
-9.070747024726903e-04 2.865672225784298e-17 5.901092712356948e-16
-9.070747024725955e-04 1.171853633947570e-15 -3.724781037351077e-16
-9.070747024717782e-04 8.526121462556483e-16 8.488185425459381e-16
-4.538264040064540e-04 -8.372969312996287e-17 -1.403475913185627e-16
-4.538264040060723e-04 0.000000000000000e+00 0.000000000000000e+00
-4.538264040069669e-04 0.000000000000000e+00 0.000000000000000e+00
-4.538264040061506e-04 2.732249986673532e-16 2.814080418027969e-16
-9.070747024726903e-04 2.865672225784298e-17 5.901092712356948e-16
-9.070747024723520e-04 0.000000000000000e+00 0.000000000000000e+00
-9.070747024720988e-04 0.000000000000000e+00 0.000000000000000e+00
-9.070747024725955e-04 1.171853633947570e-15 -3.724781037351077e-16
-4.538264040060556e-04 1.824589821302426e-16 1.163843506393484e-17
-4.538264040061506e-04 2.732249986673532e-16 2.814080418027969e-16
-4.538264040068264e-04 1.531912376700706e-17 2.554081096118960e-16
-4.538264040060583e-04 3.141134639273684e-17 4.721605688985773e-16
-9.070747024717782e-04 8.526121462556483e-16 8.488185425459381e-16
-9.070747024725955e-04 1.171853633947570e-15 -3.724781037351077e-16
-9.070747024722392e-04 3.056013771329517e-16 -3.019599735460120e-16
-9.070747024725828e-04 2.067212669242185e-16 1.449160282089165e-16
-4.538264040061506e-04 2.732249986673532e-16 2.814080418027969e-16
-4.538264040069669e-04 0.000000000000000e+00 0.000000000000000e+00
-4.538264040061224e-04 0.000000000000000e+00 0.000000000000000e+00
-4.538264040068264e-04 1.531912376700706e-17 2.554081096118960e-16
-9.070747024725955e-04 1.171853633947570e-15 -3.724781037351077e-16
-9.070747024720988e-04 0.000000000000000e+00 0.000000000000000e+00
-9.070747024725812e-04 0.000000000000000e+00 0.000000000000000e+00
-9.070747024722392e-04 3.056013771329517e-16 -3.019599735460120e-16
-4.538264040060583e-04 3.141134639273684e-17 4.721605688985773e-16
-4.538264040068264e-04 1.531912376700706e-17 2.554081096118960e-16
-4.538264040050574e-04 7.125004599597473e-16 -8.507794248162261e-16
-4.538264040063762e-04 5.334471358503137e-16 -8.841195395966753e-16
-9.070747024725828e-04 2.067212669242185e-16 1.449160282089165e-16
-9.070747024722392e-04 3.056013771329517e-16 -3.019599735460120e-16
-9.070747024724611e-04 -1.473967570595440e-16 1.556363513702031e-16
-9.070747024725466e-04 1.632011842837341e-16 -2.193243065865742e-16
-4.538264040068264e-04 1.531912376700706e-17 2.554081096118960e-16
-4.538264040061224e-04 0.000000000000000e+00 0.000000000000000e+00
-4.538264040061528e-04 0.000000000000000e+00 0.000000000000000e+00
-4.538264040050574e-04 7.125004599597473e-16 -8.507794248162261e-16
-9.070747024722392e-04 3.056013771329517e-16 -3.019599735460120e-16
-9.070747024725812e-04 0.000000000000000e+00 0.000000000000000e+00
-9.070747024725378e-04 0.000000000000000e+00 0.000000000000000e+00
-9.070747024724611e-04 -1.473967570595440e-16 1.556363513702031e-16
-4.538264040063762e-04 5.334471358503137e-16 -8.841195395966753e-16
-4.538264040050574e-04 7.125004599597473e-16 -8.507794248162261e-16
-4.538264040051643e-04 0.000000000000000e+00 0.000000000000000e+00
-4.538264040053611e-04 0.000000000000000e+00 0.000000000000000e+00
-9.070747024725466e-04 1.632011842837341e-16 -2.193243065865742e-16
-9.070747024724611e-04 -1.473967570595440e-16 1.556363513702031e-16
-9.070747024711813e-04 0.000000000000000e+00 0.000000000000000e+00
-9.070747024720985e-04 0.000000000000000e+00 0.000000000000000e+00
-4.538264040050574e-04 7.125004599597473e-16 -8.507794248162261e-16
-4.538264040061528e-04 0.000000000000000e+00 0.000000000000000e+00
-4.538264040065209e-04 0.000000000000000e+00 0.000000000000000e+00
-4.538264040051643e-04 0.000000000000000e+00 0.000000000000000e+00
-9.070747024724611e-04 -1.473967570595440e-16 1.556363513702031e-16
-9.070747024725378e-04 0.000000000000000e+00 0.000000000000000e+00
-9.070747024714839e-04 0.000000000000000e+00 0.000000000000000e+00
-9.070747024711813e-04 0.000000000000000e+00 0.000000000000000e+00
-9.070747024729878e-04 0.000000000000000e+00 0.000000000000000e+00
-9.070747024715400e-04 0.000000000000000e+00 0.000000000000000e+00
-9.070747024726903e-04 2.865672225784298e-17 5.901092712356948e-16
-9.070747024727602e-04 -5.825287500078618e-17 1.313327777377070e-16
-1.360466801260876e-03 0.000000000000000e+00 0.000000000000000e+00
-1.360466801261244e-03 0.000000000000000e+00 0.000000000000000e+00
-1.360466801261171e-03 -2.814190474786244e-16 -2.803070975472820e-16
-1.360466801260828e-03 6.928654483740025e-16 2.380414875816993e-16
-9.070747024715400e-04 0.000000000000000e+00 0.000000000000000e+00
-9.070747024721881e-04 0.000000000000000e+00 0.000000000000000e+00
-9.070747024723520e-04 0.000000000000000e+00 0.000000000000000e+00
-9.070747024726903e-04 2.865672225784298e-17 5.901092712356948e-16
-1.360466801261244e-03 0.000000000000000e+00 0.000000000000000e+00
-1.360466801260903e-03 0.000000000000000e+00 0.000000000000000e+00
-1.360466801260903e-03 0.000000000000000e+00 0.000000000000000e+00
-1.360466801261171e-03 -2.814190474786244e-16 -2.803070975472820e-16
-9.070747024727602e-04 -5.825287500078618e-17 1.313327777377070e-16
-9.070747024726903e-04 2.865672225784298e-17 5.901092712356948e-16
-9.070747024725955e-04 1.171853633947570e-15 -3.724781037351077e-16
-9.070747024717782e-04 8.526121462556483e-16 8.488185425459381e-16
-1.360466801260828e-03 6.928654483740025e-16 2.380414875816993e-16
-1.360466801261171e-03 -2.814190474786244e-16 -2.803070975472820e-16
-1.360466801260968e-03 5.307617714472695e-16 3.929723910027834e-16
-1.360466801260658e-03 6.929418900891907e-16 8.133836756597542e-17
-9.070747024726903e-04 2.865672225784298e-17 5.901092712356948e-16
-9.070747024723520e-04 0.000000000000000e+00 0.000000000000000e+00
-9.070747024720988e-04 0.000000000000000e+00 0.000000000000000e+00
-9.070747024725955e-04 1.171853633947570e-15 -3.724781037351077e-16
-1.360466801261171e-03 -2.814190474786244e-16 -2.803070975472820e-16
-1.360466801260903e-03 0.000000000000000e+00 0.000000000000000e+00
-1.360466801260397e-03 0.000000000000000e+00 0.000000000000000e+00
-1.360466801260968e-03 5.307617714472695e-16 3.929723910027834e-16
-9.070747024717782e-04 8.526121462556483e-16 8.488185425459381e-16
-9.070747024725955e-04 1.171853633947570e-15 -3.724781037351077e-16
-9.070747024722392e-04 3.056013771329517e-16 -3.019599735460120e-16
-9.070747024725828e-04 2.067212669242185e-16 1.449160282089165e-16
-1.360466801260658e-03 6.929418900891907e-16 8.133836756597542e-17
-1.360466801260968e-03 5.307617714472695e-16 3.929723910027834e-16
-1.360466801260296e-03 6.939242292568983e-16 -3.230702605320967e-16
-1.360466801260662e-03 2.723610247044269e-16 -2.818813016860706e-16
-9.070747024725955e-04 1.171853633947570e-15 -3.724781037351077e-16
-9.070747024720988e-04 0.000000000000000e+00 0.000000000000000e+00
-9.070747024725812e-04 0.000000000000000e+00 0.000000000000000e+00
-9.070747024722392e-04 3.056013771329517e-16 -3.019599735460120e-16
-1.360466801260968e-03 5.307617714472695e-16 3.929723910027834e-16
-1.360466801260397e-03 0.000000000000000e+00 0.000000000000000e+00
-1.360466801260587e-03 0.000000000000000e+00 0.000000000000000e+00
-1.360466801260296e-03 6.939242292568983e-16 -3.230702605320967e-16
-9.070747024725828e-04 2.067212669242185e-16 1.449160282089165e-16
-9.070747024722392e-04 3.056013771329517e-16 -3.019599735460120e-16
-9.070747024724611e-04 -1.473967570595440e-16 1.556363513702031e-16
-9.070747024725466e-04 1.632011842837341e-16 -2.193243065865742e-16
-1.360466801260662e-03 2.723610247044269e-16 -2.818813016860706e-16
-1.360466801260296e-03 6.939242292568983e-16 -3.230702605320967e-16
-1.360466801260908e-03 3.338482822800936e-16 3.998268029247192e-16
-1.360466801260955e-03 9.156979099409148e-16 3.518819267793625e-18
-9.070747024722392e-04 3.056013771329517e-16 -3.019599735460120e-16
-9.070747024725812e-04 0.000000000000000e+00 0.000000000000000e+00
-9.070747024725378e-04 0.000000000000000e+00 0.000000000000000e+00
-9.070747024724611e-04 -1.473967570595440e-16 1.556363513702031e-16
-1.360466801260296e-03 6.939242292568983e-16 -3.230702605320967e-16
-1.360466801260587e-03 0.000000000000000e+00 0.000000000000000e+00
-1.360466801260349e-03 0.000000000000000e+00 0.000000000000000e+00
-1.360466801260908e-03 3.338482822800936e-16 3.998268029247192e-16
-9.070747024725466e-04 1.632011842837341e-16 -2.193243065865742e-16
-9.070747024724611e-04 -1.473967570595440e-16 1.556363513702031e-16
-9.070747024711813e-04 0.000000000000000e+00 0.000000000000000e+00
-9.070747024720985e-04 0.000000000000000e+00 0.000000000000000e+00
-1.360466801260955e-03 9.156979099409148e-16 3.518819267793625e-18
-1.360466801260908e-03 3.338482822800936e-16 3.998268029247192e-16
-1.360466801260412e-03 0.000000000000000e+00 0.000000000000000e+00
-1.360466801260596e-03 0.000000000000000e+00 0.000000000000000e+00
-9.070747024724611e-04 -1.473967570595440e-16 1.556363513702031e-16
-9.070747024725378e-04 0.000000000000000e+00 0.000000000000000e+00
-9.070747024714839e-04 0.000000000000000e+00 0.000000000000000e+00
-9.070747024711813e-04 0.000000000000000e+00 0.000000000000000e+00
-1.360466801260908e-03 3.338482822800936e-16 3.998268029247192e-16
-1.360466801260349e-03 0.000000000000000e+00 0.000000000000000e+00
-1.360466801259432e-03 0.000000000000000e+00 0.000000000000000e+00
-1.360466801260412e-03 0.000000000000000e+00 0.000000000000000e+00
-1.360466801260876e-03 0.000000000000000e+00 0.000000000000000e+00
-1.360466801261244e-03 0.000000000000000e+00 0.000000000000000e+00
-1.360466801261171e-03 -2.814190474786244e-16 -2.803070975472820e-16
-1.360466801260828e-03 6.928654483740025e-16 2.380414875816993e-16
-1.814801405133440e-03 0.000000000000000e+00 0.000000000000000e+00
-1.814801405132608e-03 0.000000000000000e+00 0.000000000000000e+00
-1.814801405133175e-03 -6.996462341729460e-16 5.982156680028953e-16
-1.814801405132630e-03 -4.793473596124393e-16 4.360883310922262e-16
-1.360466801261244e-03 0.000000000000000e+00 0.000000000000000e+00
-1.360466801260903e-03 0.000000000000000e+00 0.000000000000000e+00
-1.360466801260903e-03 0.000000000000000e+00 0.000000000000000e+00
-1.360466801261171e-03 -2.814190474786244e-16 -2.803070975472820e-16
-1.814801405132608e-03 0.000000000000000e+00 0.000000000000000e+00
-1.814801405133503e-03 0.000000000000000e+00 0.000000000000000e+00
-1.814801405133342e-03 0.000000000000000e+00 0.000000000000000e+00
-1.814801405133175e-03 -6.996462341729460e-16 5.982156680028953e-16
-1.360466801260828e-03 6.928654483740025e-16 2.380414875816993e-16
-1.360466801261171e-03 -2.814190474786244e-16 -2.803070975472820e-16
-1.360466801260968e-03 5.307617714472695e-16 3.929723910027834e-16
-1.360466801260658e-03 6.929418900891907e-16 8.133836756597542e-17
-1.814801405132630e-03 -4.793473596124393e-16 4.360883310922262e-16
-1.814801405133175e-03 -6.996462341729460e-16 5.982156680028953e-16
-1.814801405132991e-03 6.185909875076021e-16 -3.169626173326026e-16
-1.814801405133469e-03 1.088340748938671e-15 -9.156092438998255e-17
-1.360466801261171e-03 -2.814190474786244e-16 -2.803070975472820e-16
-1.360466801260903e-03 0.000000000000000e+00 0.000000000000000e+00
-1.360466801260397e-03 0.000000000000000e+00 0.000000000000000e+00
-1.360466801260968e-03 5.307617714472695e-16 3.929723910027834e-16
-1.814801405133175e-03 -6.996462341729460e-16 5.982156680028953e-16
-1.814801405133342e-03 0.000000000000000e+00 0.000000000000000e+00
-1.814801405133380e-03 0.000000000000000e+00 0.000000000000000e+00
-1.814801405132991e-03 6.185909875076021e-16 -3.169626173326026e-16
-1.360466801260658e-03 6.929418900891907e-16 8.133836756597542e-17
-1.360466801260968e-03 5.307617714472695e-16 3.929723910027834e-16
-1.360466801260296e-03 6.939242292568983e-16 -3.230702605320967e-16
-1.360466801260662e-03 2.723610247044269e-16 -2.818813016860706e-16
-1.814801405133469e-03 1.088340748938671e-15 -9.156092438998255e-17
-1.814801405132991e-03 6.185909875076021e-16 -3.169626173326026e-16
-1.814801405133128e-03 5.285971052225501e-16 -3.373857728224161e-16
-1.814801405132443e-03 3.380800488287002e-16 6.834741101793819e-17
-1.360466801260968e-03 5.307617714472695e-16 3.929723910027834e-16
-1.360466801260397e-03 0.000000000000000e+00 0.000000000000000e+00
-1.360466801260587e-03 0.000000000000000e+00 0.000000000000000e+00
-1.360466801260296e-03 6.939242292568983e-16 -3.230702605320967e-16
-1.814801405132991e-03 6.185909875076021e-16 -3.169626173326026e-16
-1.814801405133380e-03 0.000000000000000e+00 0.000000000000000e+00
-1.814801405131950e-03 0.000000000000000e+00 0.000000000000000e+00
-1.814801405133128e-03 5.285971052225501e-16 -3.373857728224161e-16
-1.360466801260662e-03 2.723610247044269e-16 -2.818813016860706e-16
-1.360466801260296e-03 6.939242292568983e-16 -3.230702605320967e-16
-1.360466801260908e-03 3.338482822800936e-16 3.998268029247192e-16
-1.360466801260955e-03 9.156979099409148e-16 3.518819267793625e-18
-1.814801405132443e-03 3.380800488287002e-16 6.834741101793819e-17
-1.814801405133128e-03 5.285971052225501e-16 -3.373857728224161e-16
-1.814801405132858e-03 -5.576780470427322e-16 -5.711913228078625e-16