<?xml version="1.0" ?> 
<!-- 
# vtk DataFile Version 3.0
-->
<VTKFile type="UnstructuredGrid" version="0.1" compressor="vtkZLibDataCompressor" byte_order="LittleEndian">
  <UnstructuredGrid>
    <FieldData>
      <DataArray type="Float64" Name="TIME" NumberOfTuples="1" format="ascii">
0.000000000000000e+00 
      </DataArray>
    </FieldData>

    <Piece NumberOfPoints="288" NumberOfCells="48" >
      <Points>
        <DataArray type="Float64" NumberOfComponents="3" format="ascii">
-1.288718479110000e-01 1.568455638170000e-01 -6.346670210360000e-02
-1.193491605435400e-01 1.852315587798000e-01 -6.535183214540000e-02
-1.098264731760800e-01 2.136175537426000e-01 -6.723696218720000e-02
-1.003037858086200e-01 2.420035487054000e-01 -6.912209222900000e-02
-9.078109844115999e-02 2.703895436682000e-01 -7.100722227080000e-02
-8.125841107369999e-02 2.987755386310000e-01 -7.289235231260000e-02
-4.501603284700000e-01 2.467504734290000e-01 -3.057176903520000e-01
-4.542683979146000e-01 2.721457182694000e-01 -3.211515915090001e-01
-4.583764673592000e-01 2.975409631098000e-01 -3.365854926660000e-01
-4.624845368037999e-01 3.229362079502000e-01 -3.520193938230000e-01
-4.665926062483999e-01 3.483314527906000e-01 -3.674532949800000e-01
-4.707006756930000e-01 3.737266976310000e-01 -3.828871961370000e-01
-2.585282494620000e-01 -1.293301703550000e-01 -4.179135269600000e-01
-2.574774395527999e-01 -1.017695809127740e-01 -4.061105735954000e-01
-2.564266296436000e-01 -7.420899147054799e-02 -3.943076202308000e-01
-2.553758197344000e-01 -4.664840202832200e-02 -3.825046668662000e-01
-2.543250098252000e-01 -1.908781258609600e-02 -3.707017135016000e-01
-2.532741999160000e-01 8.472776856130000e-03 -3.588987601370000e-01
-2.565624818120000e-01 -1.222214204190000e-01 -2.246708469550000e-01
-2.637378884127999e-01 -9.978891103887999e-02 -2.060887032944000e-01
-2.709132950136000e-01 -7.735640165875998e-02 -1.875065596338000e-01
-2.780887016144000e-01 -5.492389227863999e-02 -1.689244159732000e-01
-2.852641082152000e-01 -3.249138289851999e-02 -1.503422723126000e-01
-2.924395148160000e-01 -1.005887351840000e-02 -1.317601286520000e-01
2.212281405580000e-01 1.757612935250000e-01 1.265238240730000e-01
2.376131979172000e-01 2.006599503458000e-01 1.299277605952000e-01
2.539982552764000e-01 2.255586071666000e-01 1.333316971174000e-01
2.703833126356000e-01 2.504572639874000e-01 1.367356336396000e-01
2.867683699948000e-01 2.753559208082000e-01 1.401395701618000e-01
3.031534273540000e-01 3.002545776290000e-01 1.435435066840000e-01
-5.944945469460000e-02 -1.442093557530000e-01 -4.734426788190000e-01
-5.387809954418000e-02 -1.187560743043200e-01 -4.585735677061999e-01
-4.830674439376000e-02 -9.330279285564000e-02 -4.437044565934000e-01
-4.273538924334000e-02 -6.784951140696001e-02 -4.288353454806000e-01
-3.716403409292000e-02 -4.239622995827999e-02 -4.139662343678000e-01
-3.159267894250000e-02 -1.694294850960000e-02 -3.990971232550000e-01
-2.835770381700000e-01 -9.648914680530001e-02 -1.615746016640000e-01
-2.675986249637999e-01 -7.351210649303999e-02 -1.723795047130000e-01
-2.516202117576000e-01 -5.053506618077999e-02 -1.831844077620000e-01
-2.356417985514000e-01 -2.755802586852001e-02 -1.939893108110000e-01
-2.196633853452000e-01 -4.580985556259997e-03 -2.047942138600000e-01
-2.036849721390000e-01 1.839605475600000e-02 -2.155991169090000e-01
3.375172698360000e-01 -3.601428446620000e-02 -3.349328614980000e-01
3.489464719304000e-01 -1.528219343258000e-02 -3.533598455394000e-01
3.603756740248000e-01 5.449897601040005e-03 -3.717868295808000e-01
3.718048761192000e-01 2.618198863465999e-02 -3.902138136222000e-01
3.832340782136000e-01 4.691407966828000e-02 -4.086407976636000e-01
3.946632803080000e-01 6.764617070190000e-02 -4.270677817050000e-01
2.144297054270000e-01 -2.112174898370000e-01 -4.559147417580000e-01
2.128432339974000e-01 -1.814053935945600e-01 -4.588680494002000e-01
2.112567625677999e-01 -1.515932973521200e-01 -4.618213570424000e-01
2.096702911382000e-01 -1.217812011096800e-01 -4.647746646846000e-01
2.080838197086000e-01 -9.196910486724000e-02 -4.677279723268000e-01
2.064973482790000e-01 -6.215700862480000e-02 -4.706812799690000e-01
-4.706868753350000e-01 1.960218796040000e-01 -2.352511333100000e-01
-4.739999780159999e-01 2.256275208744000e-01 -2.317114503298000e-01
-4.773130806970000e-01 2.552331621448000e-01 -2.281717673496000e-01
-4.806261833780000e-01 2.848388034152000e-01 -2.246320843694000e-01
-4.839392860589999e-01 3.144444446856000e-01 -2.210924013892000e-01
-4.872523887400000e-01 3.440500859560000e-01 -2.175527184090000e-01
-1.192388446770000e-01 2.629354400910000e-01 -4.864075935220000e-01
-1.209541211556000e-01 2.913160958970000e-01 -4.768370030162000e-01
-1.226693976342000e-01 3.196967517030000e-01 -4.672664125104000e-01
-1.243846741128000e-01 3.480774075090000e-01 -4.576958220046000e-01
-1.260999505914000e-01 3.764580633150000e-01 -4.481252314988000e-01
-1.278152270700000e-01 4.048387191210000e-01 -4.385546409930000e-01
2.735769840910000e-01 -1.184213385720000e-02 -3.001900730150000e-01
2.745449567482000e-01 5.071115222800037e-04 -3.275133079534000e-01
2.755129294054000e-01 1.285635690176000e-02 -3.548365428917999e-01
2.764809020626000e-01 2.520560228124000e-02 -3.821597778302000e-01
2.774488747198000e-01 3.755484766072000e-02 -4.094830127686000e-01
2.784168473770000e-01 4.990409304020000e-02 -4.368062477070000e-01
-2.115346417980000e-01 5.223544869520000e-02 -2.182910425370000e-02
-2.209741406270000e-01 7.686519227256000e-02 -3.612146561122000e-02
-2.304136394560000e-01 1.014949358499200e-01 -5.041382696874000e-02
-2.398531382850000e-01 1.261246794272800e-01 -6.470618832625999e-02
-2.492926371140000e-01 1.507544230046400e-01 -7.899854968377999e-02
-2.587321359430000e-01 1.753841665820000e-01 -9.329091104130000e-02
-4.019339950770000e-01 1.212872443690000e-01 -1.931241234760000e-01
-3.826687730908001e-01 1.417462142782000e-01 -2.036256363234000e-01
-3.634035511046000e-01 1.622051841874000e-01 -2.141271491708000e-01
-3.441383291184000e-01 1.826641540966000e-01 -2.246286620182000e-01
-3.248731071322000e-01 2.031231240058000e-01 -2.351301748656000e-01
-3.056078851460000e-01 2.235820939150000e-01 -2.456316877130000e-01
2.842801341750000e-01 -4.354195143600000e-02 -2.931239569460000e-01
3.073762020558000e-01 -3.836548638156000e-02 -2.746909469372000e-01
3.304722699365999e-01 -3.318902132712000e-02 -2.562579369284000e-01
3.535683378174000e-01 -2.801255627268000e-02 -2.378249269196000e-01
3.766644056982000e-01 -2.283609121824000e-02 -2.193919169108000e-01
3.997604735790000e-01 -1.765962616380000e-02 -2.009589069020000e-01
-2.930772943850000e-01 3.385402542490000e-01 -3.412050466290000e-01
-2.852635738970000e-01 3.387377208904000e-01 -3.122411591299999e-01
-2.774498534090000e-01 3.389351875318000e-01 -2.832772716310000e-01
-2.696361329210000e-01 3.391326541732000e-01 -2.543133841320000e-01
-2.618224124330000e-01 3.393301208146000e-01 -2.253494966330000e-01
-2.540086919450000e-01 3.395275874560000e-01 -1.963856091340000e-01
-4.664552781520000e-01 -2.633014580710000e-03 -1.571589001780000e-01
-4.657226850255999e-01 1.479288595907201e-02 -1.815679414882000e-01
-4.649900918992000e-01 3.221878649885401e-02 -2.059769827984000e-01
-4.642574987727999e-01 4.964468703863600e-02 -2.303860241086000e-01
-4.635249056464000e-01 6.707058757841801e-02 -2.547950654188000e-01
-4.627923125200000e-01 8.449648811820000e-02 -2.792041067290000e-01
3.860127550710000e-01 3.795351364090000e-01 -3.289333422640000e-01
4.001763725549999e-01 4.003812272502000e-01 -3.452070153716000e-01
4.143399900390000e-01 4.212273180914000e-01 -3.614806884792000e-01
4.285036075230000e-01 4.420734089326000e-01 -3.777543615868000e-01
4.426672250070000e-01 4.629194997738000e-01 -3.940280346944000e-01
4.568308424910000e-01 4.837655906150000e-01 -4.103017078020000e-01
-7.808105587430000e-02 -3.623369071070000e-02 -1.569431071400000e-01
-6.210897820176199e-02 -2.282263477925999e-02 -1.353784065016200e-01
-4.613690052922399e-02 -9.411578847819995e-03 -1.138137058632400e-01
-3.016482285668601e-02 3.999477083619996e-03 -9.224900522485999e-02
-1.419274518414800e-02 1.741053301506000e-02 -7.068430458647999e-02
1.779332488390000e-03 3.082158894650000e-02 -4.911960394810000e-02
-6.783635472480000e-02 3.989420889820000e-01 -3.047539907280000e-01
-7.720254114663999e-02 4.091276423595999e-01 -2.781357816542001e-01
-8.656872756848000e-02 4.193131957371999e-01 -2.515175725804000e-01
-9.593491399031998e-02 4.294987491148000e-01 -2.248993635066000e-01
-1.053011004121600e-01 4.396843024924000e-01 -1.982811544328000e-01
-1.146672868340000e-01 4.498698558700000e-01 -1.716629453590000e-01
1.181079770280000e-01 -2.162996736730000e-01 -1.824855532520000e-01
1.329428549476000e-01 -1.913112697239600e-01 -1.899357925222000e-01
1.477777328672000e-01 -1.663228657749200e-01 -1.973860317924000e-01
1.626126107868000e-01 -1.413344618258800e-01 -2.048362710626000e-01
1.774474887064000e-01 -1.163460578768400e-01 -2.122865103328000e-01
1.922823666260000e-01 -9.135765392780000e-02 -2.197367496030000e-01
-7.732985112030000e-02 3.416768040560000e-01 6.299791964880000e-02
-6.017551418832200e-02 3.661075097095999e-01 6.597606432156000e-02
-4.302117725634399e-02 3.905382153632000e-01 6.895420899431999e-02
-2.586684032436599e-02 4.149689210167999e-01 7.193235366707999e-02
-8.712503392387995e-03 4.393996266704000e-01 7.491049833984000e-02
8.441833539590000e-03 4.638303323240000e-01 7.788864301260000e-02
1.381202637320000e-01 -2.278872935810000e-02 -2.236937085350000e-01
1.428212126112000e-01 -4.727340757859997e-03 -2.002056834698000e-01
1.475221614904000e-01 1.333404784238000e-02 -1.767176584046000e-01
1.522231103696000e-01 3.139543644261999e-02 -1.532296333394000e-01
1.569240592488000e-01 4.945682504286000e-02 -1.297416082742000e-01
1.616250081280000e-01 6.751821364310000e-02 -1.062535832090000e-01
-3.531860723640000e-02 -9.989680923670000e-02 -2.503958596280000e-01
-2.313620849169999e-02 -7.309100668733999e-02 -2.561437384116000e-01
-1.095380974700000e-02 -4.628520413797999e-02 -2.618916171952000e-01
1.228588997699996e-03 -1.947940158862000e-02 -2.676394959788000e-01
1.341098774240000e-02 7.326400960740002e-03 -2.733873747624000e-01
2.559338648710000e-02 3.413220351010000e-02 -2.791352535460000e-01
1.437754377540000e-01 -2.362827712830000e-01 -2.855717869750000e-01
1.411428964980000e-01 -2.067656752992800e-01 -2.809015866336000e-01
1.385103552420000e-01 -1.772485793155600e-01 -2.762313862922000e-01
1.358778139860000e-01 -1.477314833318400e-01 -2.715611859508000e-01
1.332452727300000e-01 -1.182143873481200e-01 -2.668909856094000e-01
1.306127314740000e-01 -8.869729136439999e-02 -2.622207852680000e-01
-2.756490830910000e-01 2.164293660560000e-01 2.434897045910000e-02
-2.514108216482000e-01 2.327723566612000e-01 1.761002838231999e-02
-2.271725602054000e-01 2.491153472664000e-01 1.087108630553999e-02
-2.029342987626000e-01 2.654583378715999e-01 4.132144228760002e-03
-1.786960373198000e-01 2.818013284768000e-01 -2.606797848020001e-03
-1.544577758770000e-01 2.981443190820000e-01 -9.345739924799999e-03
1.084858147030000e-01 -1.803066136710000e-01 -3.398317749910000e-01
1.197037559654000e-01 -1.524969098877000e-01 -3.389496359328000e-01
1.309216972278000e-01 -1.246872061044000e-01 -3.380674968746000e-01
1.421396384902000e-01 -9.687750232110000e-02 -3.371853578164000e-01
1.533575797526000e-01 -6.906779853779998e-02 -3.363032187582000e-01
1.645755210150000e-01 -4.125809475450000e-02 -3.354210797000000e-01
-1.711829010180000e-01 6.913005146850000e-02 -3.127506052500000e-01
-1.712687589678000e-01 9.800246876480000e-02 -3.046034494344000e-01
-1.713546169176000e-01 1.268748860611000e-01 -2.964562936188000e-01
-1.714404748674000e-01 1.557473033574000e-01 -2.883091378032000e-01
-1.715263328172000e-01 1.846197206537000e-01 -2.801619819876000e-01
-1.716121907670000e-01 2.134921379500000e-01 -2.720148261720000e-01
-3.975502481070000e-01 -4.753734596300000e-02 -2.894566714480000e-01
-3.806689091310000e-01 -2.331464272951999e-02 -2.841386791162000e-01
-3.637875701550000e-01 9.080605039599992e-04 -2.788206867844000e-01
-3.469062311790000e-01 2.513076373743999e-02 -2.735026944526001e-01
-3.300248922030000e-01 4.935346697092000e-02 -2.681847021208000e-01
-3.131435532270000e-01 7.357617020439999e-02 -2.628667097890000e-01
2.525302585790000e-01 -1.873076135170000e-01 -1.882126441340000e-01
2.494191914542000e-01 -1.592032716088800e-01 -1.982359782728000e-01
2.463081243294000e-01 -1.310989297007600e-01 -2.082593124116000e-01
2.431970572046000e-01 -1.029945877926400e-01 -2.182826465504000e-01
2.400859900798000e-01 -7.489024588451999e-02 -2.283059806892000e-01
2.369749229550000e-01 -4.678590397640000e-02 -2.383293148280000e-01
-7.959761865620001e-02 -1.704742075030000e-02 -2.488568412720000e-01
-8.467500347816001e-02 1.034655983516001e-02 -2.599829363216000e-01
-8.975238830012000e-02 3.774054042062000e-02 -2.711090313712000e-01
-9.482977312207999e-02 6.513452100607998e-02 -2.822351264208000e-01
-9.990715794403998e-02 9.252850159154000e-02 -2.933612214704000e-01
-1.049845427660000e-01 1.199224821770000e-01 -3.044873165200000e-01
2.916193667350000e-01 3.367573677970000e-01 -4.983373545400000e-01
2.960343730662000e-01 3.383387710524000e-01 -4.687061736180000e-01
3.004493793974000e-01 3.399201743078000e-01 -4.390749926960000e-01
3.048643857286000e-01 3.415015775632000e-01 -4.094438117740000e-01
3.092793920598000e-01 3.430829808186000e-01 -3.798126308520000e-01
3.136943983910000e-01 3.446643840740000e-01 -3.501814499300000e-01
2.757686768450000e-01 4.076524243050000e-01 -1.180557897160000e-01
2.822110820112000e-01 4.249636239732000e-01 -1.416951167310000e-01
2.886534871774000e-01 4.422748236414000e-01 -1.653344437460000e-01
2.950958923436000e-01 4.595860233096000e-01 -1.889737707610000e-01
3.015382975098000e-01 4.768972229778000e-01 -2.126130977760000e-01
3.079807026760000e-01 4.942084226460000e-01 -2.362524247910000e-01
2.283240714380000e-01 -6.951212913719999e-02 -2.095476400150000e-01
2.209702054284000e-01 -4.282070218353998e-02 -2.211013572476000e-01
2.136163394188000e-01 -1.612927522987999e-02 -2.326550744802000e-01
2.062624734092000e-01 1.056215172378000e-02 -2.442087917127999e-01
1.989086073996000e-01 3.725357867744001e-02 -2.557625089454000e-01
1.915547413900000e-01 6.394500563110000e-02 -2.673162261780000e-01
-2.774771931940000e-01 1.639221034540000e-01 -3.313361915430000e-01
-2.806584066678000e-01 1.694427112306000e-01 -3.020206193908000e-01
-2.838396201416000e-01 1.749633190072000e-01 -2.727050472386000e-01
-2.870208336154000e-01 1.804839267838000e-01 -2.433894750864000e-01
-2.902020470892000e-01 1.860045345604000e-01 -2.140739029342000e-01
-2.933832605630000e-01 1.915251423370000e-01 -1.847583307820000e-01
2.124010917850000e-01 -5.414662065650000e-02 -3.411423808610000e-02
2.103005866258000e-01 -3.808540502601999e-02 -8.862995927599988e-03
2.082000814666000e-01 -2.202418939553999e-02 1.638824623090001e-02
2.060995763074000e-01 -5.962973765060008e-03 4.163948838939999e-02
2.039990711482000e-01 1.009824186542000e-02 6.689073054790000e-02
2.018985659890000e-01 2.615945749590000e-02 9.214197270640000e-02
-3.404063698310000e-01 1.666050991250000e-01 -1.378148334540000e-01
-3.357511988398000e-01 1.738612481254000e-01 -1.090802256659720e-01
-3.310960278486000e-01 1.811173971258000e-01 -8.034561787794398e-02
-3.264408568573999e-01 1.883735461262000e-01 -5.161101008991600e-02
-3.217856858661999e-01 1.956296951266000e-01 -2.287640230188799e-02
-3.171305148750000e-01 2.028858441270000e-01 5.858205486140000e-03
3.442577796970000e-02 1.356987023180000e-01 -3.478657646380000e-02
5.204427739836000e-02 1.588806346820000e-01 -2.756255474744999e-02
6.966277682702000e-02 1.820625670460000e-01 -2.033853303110000e-02
8.728127625568000e-02 2.052444994100000e-01 -1.311451131475000e-02
1.048997756843400e-01 2.284264317740000e-01 -5.890489598399998e-03
1.225182751130000e-01 2.516083641380000e-01 1.333532117950000e-03
5.393867469960000e-02 -2.207900164690000e-01 -2.645740925240000e-02
5.832657636708000e-02 -1.941517166369800e-01 -3.953973706558001e-02
6.271447803456000e-02 -1.675134168049600e-01 -5.262206487876000e-02
6.710237970204000e-02 -1.408751169729400e-01 -6.570439269193999e-02
7.149028136952001e-02 -1.142368171409200e-01 -7.878672050512001e-02
7.587818303700000e-02 -8.759851730890000e-02 -9.186904831830001e-02
3.012116892830000e-01 3.326802658590000e-01 1.420573178500000e-01
3.056731303782000e-01 3.338093030262000e-01 1.124124056654520e-01
3.101345714734000e-01 3.349383401934000e-01 8.276749348090399e-02
3.145960125686000e-01 3.360673773606000e-01 5.312258129635600e-02
3.190574536638000e-01 3.371964145278000e-01 2.347766911180800e-02
3.235188947590000e-01 3.383254516950000e-01 -6.167243072740000e-03
4.914481462720000e-02 3.158275510110000e-01 -4.938455773390000e-01
5.808486632544000e-02 3.312438579074000e-01 -4.697123438773999e-01
6.702491802367999e-02 3.466601648038000e-01 -4.455791104158000e-01
7.596496972191999e-02 3.620764717002000e-01 -4.214458769542000e-01
8.490502142016000e-02 3.774927785966000e-01 -3.973126434926000e-01
9.384507311840000e-02 3.929090854930000e-01 -3.731794100310000e-01
-6.328401710540001e-02 8.176452537840000e-02 -3.254247456740000e-01
-4.485689973537999e-02 9.379928754771999e-02 -3.458111589180000e-01
-2.642978236536000e-02 1.058340497170400e-01 -3.661975721619999e-01
-8.002664995340010e-03 1.178688118863600e-01 -3.865839854060000e-01
1.042445237468000e-02 1.299035740556800e-01 -4.069703986500000e-01
2.885156974470000e-02 1.419383362250000e-01 -4.273568118940000e-01
-1.223832551130000e-01 -1.974208420390000e-02 -3.681374105870000e-01
-1.278291130290000e-01 8.612555184280009e-03 -3.599914265013999e-01
-1.332749709450000e-01 3.696719457246000e-02 -3.518454424158000e-01
-1.387208288610000e-01 6.532183396063998e-02 -3.436994583302000e-01
-1.441666867770000e-01 9.367647334882000e-02 -3.355534742446000e-01
-1.496125446930000e-01 1.220311127370000e-01 -3.274074901590000e-01
2.048543445730000e-01 1.523947992330000e-01 -8.348726191620000e-02
2.018118151422000e-01 1.820421256108000e-01 -8.005519937114000e-02
1.987692857114000e-01 2.116894519886000e-01 -7.662313682607999e-02
1.957267562806000e-01 2.413367783664000e-01 -7.319107428101999e-02
1.926842268498000e-01 2.709841047442000e-01 -6.975901173596000e-02
1.896416974190000e-01 3.006314311220000e-01 -6.632694919090000e-02
2.226473661200000e-01 9.439220509310001e-02 1.102534733200000e-01
2.251889015160000e-01 1.212007908098800e-01 9.703075311199999e-02
2.277304369120000e-01 1.480093765266600e-01 8.380803290399999e-02
2.302719723080000e-01 1.748179622434400e-01 7.058531269599999e-02
2.328135077040000e-01 2.016265479602200e-01 5.736259248800001e-02
2.353550431000000e-01 2.284351336770000e-01 4.413987228000000e-02
3.505682355040000e-01 3.064398996170000e-01 -1.894965555580000e-01
3.605565642088001e-01 3.126171779622000e-01 -1.618908582849399e-01
3.705448929136000e-01 3.187944563074000e-01 -1.342851610118800e-01
3.805332216184000e-01 3.249717346526000e-01 -1.066794637388200e-01
3.905215503232000e-01 3.311490129978000e-01 -7.907376646575999e-02
4.005098790280000e-01 3.373262913430000e-01 -5.146806919270000e-02
2.147133000850000e-01 -1.290527497450000e-01 -1.360662330070000e-01
2.412264491844000e-01 -1.222260774340600e-01 -1.238004484823800e-01
2.677395982838000e-01 -1.153994051231200e-01 -1.115346639577600e-01
2.942527473832000e-01 -1.085727328121800e-01 -9.926887943314000e-02
3.207658964826001e-01 -1.017460605012400e-01 -8.700309490852000e-02
3.472790455820000e-01 -9.491938819030001e-02 -7.473731038390000e-02
-3.777565698590000e-01 5.073408310550000e-02 -3.297404592780000e-01
-3.806959904580000e-01 6.307664007740001e-02 -3.569254016900000e-01
-3.836354110569999e-01 7.541919704930000e-02 -3.841103441020000e-01
-3.865748316560000e-01 8.776175402119998e-02 -4.112952865139999e-01
-3.895142522550000e-01 1.001043109931000e-01 -4.384802289260000e-01
-3.924536728540000e-01 1.124468679650000e-01 -4.656651713380000e-01
        </DataArray>
      </Points>

      <Cells>
        <DataArray type="Int32" Name="connectivity" format="ascii">
0 1 2 3 4 5 6 7 8 9 10 11 12 13 14 15 16 17 18 19 20 21 22 23 24 25 26 27 28 29 30 31 32 33 34 35 36 37 38 39 40 41 42 43 44 45 46 47 48 49 50 51 52 53 54 55 56 57 58 59 60 61 62 63 64 65 66 67 68 69 70 71 72 73 74 75 76 77 78 79 80 81 82 83 84 85 86 87 88 89 90 91 92 93 94 95 96 97 98 99 100 101 102 103 104 105 106 107 108 109 110 111 112 113 114 115 116 117 118 119 120 121 122 123 124 125 126 127 128 129 130 131 132 133 134 135 136 137 138 139 140 141 142 143 144 145 146 147 148 149 150 151 152 153 154 155 156 157 158 159 160 161 162 163 164 165 166 167 168 169 170 171 172 173 174 175 176 177 178 179 180 181 182 183 184 185 186 187 188 189 190 191 192 193 194 195 196 197 198 199 200 201 202 203 204 205 206 207 208 209 210 211 212 213 214 215 216 217 218 219 220 221 222 223 224 225 226 227 228 229 230 231 232 233 234 235 236 237 238 239 240 241 242 243 244 245 246 247 248 249 250 251 252 253 254 255 256 257 258 259 260 261 262 263 264 265 266 267 268 269 270 271 272 273 274 275 276 277 278 279 280 281 282 283 284 285 286 287 
        </DataArray>
        <DataArray type="Int32" Name="offsets" format="ascii">
6 12 18 24 30 36 42 48 54 60 66 72 78 84 90 96 102 108 114 120 126 132 138 144 150 156 162 168 174 180 186 192 198 204 210 216 222 228 234 240 246 252 258 264 270 276 282 288 
        </DataArray>
        <DataArray type="UInt8" Name="types" format="ascii">
4 4 4 4 4 4 4 4 4 4 4 4 4 4 4 4 4 4 4 4 4 4 4 4 4 4 4 4 4 4 4 4 4 4 4 4 4 4 4 4 4 4 4 4 4 4 4 4 
        </DataArray>
      </Cells>

  <CellData>
        <DataArray type="Float64" Name="cross_section_radius" format="ascii">
5.000000000000000e-03
5.000000000000000e-03
5.000000000000000e-03
5.000000000000000e-03
5.000000000000000e-03
5.000000000000000e-03
5.000000000000000e-03
5.000000000000000e-03
5.000000000000000e-03
5.000000000000000e-03
5.000000000000000e-03
5.000000000000000e-03
5.000000000000000e-03
5.000000000000000e-03
5.000000000000000e-03
5.000000000000000e-03
5.000000000000000e-03
5.000000000000000e-03
5.000000000000000e-03
5.000000000000000e-03
5.000000000000000e-03
5.000000000000000e-03
5.000000000000000e-03
5.000000000000000e-03
5.000000000000000e-03
5.000000000000000e-03
5.000000000000000e-03
5.000000000000000e-03
5.000000000000000e-03
5.000000000000000e-03
5.000000000000000e-03
5.000000000000000e-03
5.000000000000000e-03
5.000000000000000e-03
5.000000000000000e-03
5.000000000000000e-03
5.000000000000000e-03
5.000000000000000e-03
5.000000000000000e-03
5.000000000000000e-03
5.000000000000000e-03
5.000000000000000e-03
5.000000000000000e-03
5.000000000000000e-03
5.000000000000000e-03
5.000000000000000e-03
5.000000000000000e-03
5.000000000000000e-03
        </DataArray>
        <DataArray type="Float64" Name="element_ghosting" NumberOfComponents="3" format="ascii">
0.000000000000000e+00 0.000000000000000e+00 0.000000000000000e+00
0.000000000000000e+00 0.000000000000000e+00 0.000000000000000e+00
1.000000000000000e+00 0.000000000000000e+00 0.000000000000000e+00
1.000000000000000e+00 0.000000000000000e+00 0.000000000000000e+00
0.000000000000000e+00 1.000000000000000e+00 0.000000000000000e+00
0.000000000000000e+00 0.000000000000000e+00 0.000000000000000e+00
1.000000000000000e+00 0.000000000000000e+00 0.000000000000000e+00
0.000000000000000e+00 0.000000000000000e+00 0.000000000000000e+00
1.000000000000000e+00 0.000000000000000e+00 0.000000000000000e+00
0.000000000000000e+00 0.000000000000000e+00 0.000000000000000e+00
0.000000000000000e+00 0.000000000000000e+00 0.000000000000000e+00
0.000000000000000e+00 0.000000000000000e+00 0.000000000000000e+00
0.000000000000000e+00 1.000000000000000e+00 0.000000000000000e+00
0.000000000000000e+00 0.000000000000000e+00 0.000000000000000e+00
0.000000000000000e+00 0.000000000000000e+00 0.000000000000000e+00
0.000000000000000e+00 0.000000000000000e+00 0.000000000000000e+00
1.000000000000000e+00 0.000000000000000e+00 0.000000000000000e+00
0.000000000000000e+00 0.000000000000000e+00 0.000000000000000e+00
1.000000000000000e+00 0.000000000000000e+00 0.000000000000000e+00
0.000000000000000e+00 0.000000000000000e+00 0.000000000000000e+00
1.000000000000000e+00 0.000000000000000e+00 0.000000000000000e+00
0.000000000000000e+00 1.000000000000000e+00 0.000000000000000e+00
0.000000000000000e+00 0.000000000000000e+00 0.000000000000000e+00
1.000000000000000e+00 0.000000000000000e+00 0.000000000000000e+00
1.000000000000000e+00 0.000000000000000e+00 0.000000000000000e+00
0.000000000000000e+00 1.000000000000000e+00 0.000000000000000e+00
1.000000000000000e+00 0.000000000000000e+00 0.000000000000000e+00
0.000000000000000e+00 0.000000000000000e+00 0.000000000000000e+00
1.000000000000000e+00 0.000000000000000e+00 0.000000000000000e+00
1.000000000000000e+00 0.000000000000000e+00 0.000000000000000e+00
0.000000000000000e+00 0.000000000000000e+00 0.000000000000000e+00
0.000000000000000e+00 0.000000000000000e+00 0.000000000000000e+00
0.000000000000000e+00 0.000000000000000e+00 0.000000000000000e+00
0.000000000000000e+00 0.000000000000000e+00 0.000000000000000e+00
0.000000000000000e+00 0.000000000000000e+00 0.000000000000000e+00
1.000000000000000e+00 1.000000000000000e+00 0.000000000000000e+00
0.000000000000000e+00 1.000000000000000e+00 0.000000000000000e+00
0.000000000000000e+00 1.000000000000000e+00 0.000000000000000e+00
1.000000000000000e+00 0.000000000000000e+00 0.000000000000000e+00
0.000000000000000e+00 1.000000000000000e+00 0.000000000000000e+00
0.000000000000000e+00 0.000000000000000e+00 0.000000000000000e+00
0.000000000000000e+00 0.000000000000000e+00 0.000000000000000e+00
0.000000000000000e+00 0.000000000000000e+00 0.000000000000000e+00
0.000000000000000e+00 0.000000000000000e+00 0.000000000000000e+00
0.000000000000000e+00 1.000000000000000e+00 0.000000000000000e+00
0.000000000000000e+00 0.000000000000000e+00 0.000000000000000e+00
1.000000000000000e+00 0.000000000000000e+00 0.000000000000000e+00
0.000000000000000e+00 0.000000000000000e+00 0.000000000000000e+00
        </DataArray>
        <DataArray type="Float64" Name="element_owner" format="ascii">
2.000000000000000e+00
2.000000000000000e+00
2.000000000000000e+00
2.000000000000000e+00
2.000000000000000e+00
2.000000000000000e+00
2.000000000000000e+00
2.000000000000000e+00
2.000000000000000e+00
2.000000000000000e+00
2.000000000000000e+00
2.000000000000000e+00
2.000000000000000e+00
2.000000000000000e+00
2.000000000000000e+00
2.000000000000000e+00
2.000000000000000e+00
2.000000000000000e+00
2.000000000000000e+00
2.000000000000000e+00
2.000000000000000e+00
2.000000000000000e+00
2.000000000000000e+00
2.000000000000000e+00
2.000000000000000e+00
2.000000000000000e+00
2.000000000000000e+00
2.000000000000000e+00
2.000000000000000e+00
2.000000000000000e+00
2.000000000000000e+00
2.000000000000000e+00
2.000000000000000e+00
2.000000000000000e+00
2.000000000000000e+00
2.000000000000000e+00
2.000000000000000e+00
2.000000000000000e+00
2.000000000000000e+00
2.000000000000000e+00
2.000000000000000e+00
2.000000000000000e+00
2.000000000000000e+00
2.000000000000000e+00
2.000000000000000e+00
2.000000000000000e+00
2.000000000000000e+00
2.000000000000000e+00
        </DataArray>
      </CellData>

    </Piece>
  </UnstructuredGrid>
</VTKFile>
