<?xml version="1.0" ?> 
<!-- 
# vtk DataFile Version 3.0
-->
<VTKFile type="UnstructuredGrid" version="0.1" compressor="vtkZLibDataCompressor" byte_order="LittleEndian">
  <UnstructuredGrid>
    <FieldData>
      <DataArray type="Float64" Name="TIME" NumberOfTuples="1" format="ascii">
1.000000000000000e-03 
      </DataArray>
    </FieldData>

    <Piece NumberOfPoints="336" NumberOfCells="56" >
      <Points>
        <DataArray type="Float64" NumberOfComponents="3" format="ascii">
-3.473482069055468e-01 7.053494255352032e-02 4.267202557166629e-01
-3.455933606673317e-01 9.901401129661749e-02 4.174228556822952e-01
-3.438377339133739e-01 1.275057468825475e-01 4.081213203755964e-01
-3.420818469875018e-01 1.560017047494217e-01 3.988184066447873e-01
-3.403262202335440e-01 1.844934403353517e-01 3.895168713380885e-01
-3.385713739953289e-01 2.129725090784489e-01 3.802194713037209e-01
-1.296168359930960e-01 -2.328072094381428e-01 4.816628901091852e-01
-1.214853569138424e-01 -2.072785721541159e-01 4.681507831151469e-01
-1.133513184861975e-01 -1.817418998402836e-01 4.546344232430084e-01
-1.052164269424222e-01 -1.562025491831827e-01 4.411166457448366e-01
-9.708238851477727e-02 -1.306658768693504e-01 4.276002858726981e-01
-8.895090943552367e-02 -1.051372395853235e-01 4.140881788786598e-01
3.723422070124917e-01 -1.889921380501920e-01 3.300784692218215e-01
3.691932177457635e-01 -1.591478675696978e-01 3.298225388563319e-01
3.660426255244076e-01 -1.292884052268557e-01 3.295664782126074e-01
3.628914989848426e-01 -9.942387892989754e-02 3.293103741428044e-01
3.597409067634867e-01 -6.956441658705537e-02 3.290543134990799e-01
3.565919174967586e-01 -3.972014610656124e-02 3.287983831335903e-01
2.746964204005226e-01 -1.787323346413049e-01 2.805298853475543e-01
2.692120059607218e-01 -1.753667467845887e-01 3.098284279104794e-01
2.637283907697860e-01 -1.720016493981503e-01 3.391227007692920e-01
2.582450419951386e-01 -1.686367155018046e-01 3.684155503934005e-01
2.527614268042028e-01 -1.652716181153662e-01 3.977098232522130e-01
2.472770123644021e-01 -1.619060302586500e-01 4.270083658151381e-01
1.934558371716191e-01 -2.953017464124784e-01 2.415446517089096e-01
2.035909206655215e-01 -2.693980624916464e-01 2.528008567152999e-01
2.137293000905806e-01 -2.434859546876805e-01 2.640607222417846e-01
2.238687781593586e-01 -2.175710389226699e-01 2.753218079416340e-01
2.340071575844177e-01 -1.916589311187039e-01 2.865816734681186e-01
2.441422410783202e-01 -1.657552471978720e-01 2.978378784745090e-01
3.762241622385751e-03 -1.464188659345773e-01 3.394250214035928e-01
2.954529390450798e-02 -1.311350113665170e-01 3.407176008549191e-01
5.532899584378613e-02 -1.158507716902320e-01 3.420102128754496e-01
8.111291433544958e-02 -1.005664036445388e-01 3.433028357523812e-01
1.068966162747277e-01 -8.528216396825380e-02 3.445954477729117e-01
1.326796685568500e-01 -6.999830940019347e-02 3.458880272242380e-01
9.107473427701888e-02 -3.616818525321533e-01 3.457615044148829e-01
1.088762968591815e-01 -3.458403106408829e-01 3.639868150974503e-01
1.266780241634936e-01 -3.299986221640069e-01 3.822122944232107e-01
1.444798063751888e-01 -3.141568848252624e-01 4.004378299633686e-01
1.622815336795009e-01 -2.983151963483863e-01 4.186633092891289e-01
1.800830962616635e-01 -2.824736544571160e-01 4.368886199716964e-01
3.105902291623315e-01 3.397771306754306e-01 4.786434644907062e-02
3.087273030903632e-01 3.416123632975646e-01 7.774674946879218e-02
3.068646685690846e-01 3.434473087030747e-01 1.076244758481769e-01
3.050021312313692e-01 3.452821583697102e-01 1.375006433474494e-01
3.031394967100907e-01 3.471171037752203e-01 1.673783697268342e-01
3.012765706381223e-01 3.489523363973542e-01 1.972607727465558e-01
-3.943521347004200e-01 3.442273761447377e-01 2.359961631627106e-01
-3.849781769393770e-01 3.705109664907968e-01 2.249613882914091e-01
-3.756008713605352e-01 3.968039437653892e-01 2.139226724576389e-01
-3.662224498424272e-01 4.231000500161594e-01 2.028826429697123e-01
-3.568451442635854e-01 4.493930272907519e-01 1.918439271359421e-01
-3.474711865025425e-01 4.756766176368110e-01 1.808091522646406e-01
2.113978015467837e-01 1.490387476763788e-01 9.855260742854342e-02
1.988031363467180e-01 1.711356169283583e-01 1.144701941762895e-01
1.862058870040873e-01 1.932370199618620e-01 1.303910468555069e-01
1.736077762806016e-01 2.153399342558738e-01 1.463129881785480e-01
1.610105269379708e-01 2.374413372893775e-01 1.622338408577654e-01
1.484158617379052e-01 2.595382065413570e-01 1.781514276055115e-01
2.772239552543819e-01 5.171917909838403e-02 3.319425433218525e-01
2.765801576338021e-01 8.171881611729453e-02 3.324843322749577e-01
2.759360203655413e-01 1.117342800153604e-01 3.330264070591308e-01
2.752917698813869e-01 1.417550195398113e-01 3.335685771203266e-01
2.746476326131261e-01 1.717704834378772e-01 3.341106519044998e-01
2.740038349925463e-01 2.017701204567876e-01 3.346524408576050e-01
1.889602222389704e-01 -1.983127727608663e-01 3.209484582791106e-01
1.954462688339960e-01 -1.752955985261885e-01 3.390718229739558e-01
2.019338889196898e-01 -1.522728404110472e-01 3.571995843293564e-01
2.084220335022731e-01 -1.292482210024181e-01 3.753288112382755e-01
2.149096535879670e-01 -1.062254628872768e-01 3.934565725936761e-01
2.213957001829927e-01 -8.320828865259906e-02 4.115799372885214e-01
8.527046310791832e-02 9.176529196596662e-02 1.986587165595496e-01
9.397551245882395e-02 1.200515815169449e-01 1.936894201358504e-01
1.026844836469999e-01 1.483506147319885e-01 1.887178849227847e-01
1.113947621142659e-01 1.766538958350538e-01 1.837456034465968e-01
1.201037333024419e-01 2.049529290500974e-01 1.787740682335311e-01
1.288087826533475e-01 2.332392186010756e-01 1.738047718098319e-01
-4.118138859522844e-01 -7.220584510048256e-02 4.269279985750803e-01
-4.080148491201964e-01 -6.185126279849248e-02 3.990308428394050e-01
-4.042161005896052e-01 -5.149746628556125e-02 3.711358041644775e-01
-4.004174481595130e-01 -4.114393170231628e-02 3.432414711764658e-01
-3.966186996289218e-01 -3.079013518938502e-02 3.153464325015382e-01
-3.928196627968338e-01 -2.043555288739496e-02 2.874492767658630e-01
-1.666255519190625e-01 3.705693534571693e-02 2.453423364007896e-01
-1.610343690316800e-01 6.418311418869617e-02 2.568937520808456e-01
-1.554409243888270e-01 9.132026616287645e-02 2.684498405605816e-01
-1.498467258274838e-01 1.184610758474570e-01 2.800074866402110e-01
-1.442532811846307e-01 1.455982278216373e-01 2.915635751199470e-01
-1.386620982972482e-01 1.727244066646166e-01 3.031149908000031e-01
2.352945790562405e-01 -3.067324786913055e-01 4.390818861797454e-01
2.435104370221080e-01 -2.838679379378097e-01 4.214747477524940e-01
2.517281833407402e-01 -2.609981419426914e-01 4.038635624577497e-01
2.599465591102940e-01 -2.381265942003655e-01 3.862510282071743e-01
2.681643054289263e-01 -2.152567982052471e-01 3.686398429124299e-01
2.763801633947938e-01 -1.923922574517514e-01 3.510327044851785e-01
-3.780832454733812e-01 2.905470838533315e-01 3.828476481071156e-01
-3.780575793019413e-01 3.150652279997458e-01 4.001464054079778e-01
-3.780319054912518e-01 3.395906696982899e-01 4.174503114910004e-01
-3.780062291341458e-01 3.641185439142106e-01 4.347559338347429e-01
-3.779805553234564e-01 3.886439856127548e-01 4.520598399177654e-01
-3.779548891520165e-01 4.131621297591691e-01 4.693585972186276e-01
2.972492823514753e-01 3.143044170709464e-01 4.480054347486425e-01
3.220723932021125e-01 3.290848026020951e-01 4.399205482787000e-01
3.468957335303645e-01 3.438653247707360e-01 4.318355870679050e-01
3.717191503511548e-01 3.586458924852077e-01 4.237506009434927e-01
3.965424906794068e-01 3.734264146538487e-01 4.156656397326978e-01
4.213656015300440e-01 3.882068001849974e-01 4.075807532627553e-01
-4.608457066986314e-02 2.859789169720197e-01 1.118904440554559e-01
-5.296716422645609e-02 3.062965483806206e-01 1.328673677909544e-01
-5.985085652894865e-02 3.266174233214768e-01 1.538476403089651e-01
-6.673491508007440e-02 3.469393794397513e-01 1.748290290878131e-01
-7.361860738256698e-02 3.672602543806074e-01 1.958093016058238e-01
-8.050120093915993e-02 3.875778857892083e-01 2.167862253413223e-01
1.207350254239559e-03 -1.384658581483241e-01 3.740849735205071e-01
1.621820227386726e-02 -1.143671326003437e-01 3.643746332058641e-01
3.123326714057348e-02 -9.026164366242462e-02 3.546615676509233e-01
4.624973628963921e-02 -6.615390026119264e-02 3.449475936825501e-01
6.126480115634544e-02 -4.204841132327355e-02 3.352345281276093e-01
7.627565317597314e-02 -1.794968577529320e-02 3.255241878129663e-01
-3.752277011536339e-01 2.680225008665600e-01 2.909463909308636e-01
-3.708362377323454e-01 2.862676232259550e-01 2.675381573946267e-01
-3.664443864192142e-01 3.045143571515762e-01 2.441278562417503e-01
-3.620524058088023e-01 3.227616282659395e-01 2.207168658833272e-01
-3.576605544956711e-01 3.410083621915608e-01 1.973065647304507e-01
-3.532690910743827e-01 3.592534845509557e-01 1.738983311942140e-01
3.811711435938522e-01 -4.659099158759645e-02 3.326906056643740e-01
3.926702824867513e-01 -2.581856515761916e-02 3.143470203507304e-01
4.041712876026007e-01 -5.042767520519416e-03 2.960004580124396e-01
4.156729147927670e-01 1.573415385228782e-02 2.776529033326000e-01
4.271739199086165e-01 3.650995148938758e-02 2.593063409943093e-01
4.386730588015156e-01 5.728237791936486e-02 2.409627556806657e-01
-1.072507074253897e-01 1.012390841954936e-01 7.128539944657092e-02
-1.158365559393226e-01 1.096611768319731e-01 9.876667063339355e-02
-1.244215372215190e-01 1.180824187772238e-01 1.262451660164624e-01
-1.330062294264698e-01 1.265033771587316e-01 1.537227361316134e-01
-1.415912107086662e-01 1.349246191039823e-01 1.812012315146824e-01
-1.501770592225991e-01 1.433467117404618e-01 2.086825027015050e-01
4.393521561017539e-01 -1.780760767933674e-01 2.182624942711415e-01
4.392431328685349e-01 -1.607451878785556e-01 2.427515355642657e-01
4.391341025291720e-01 -1.434131693348677e-01 2.672421730552729e-01
4.390250698210944e-01 -1.260807742482210e-01 2.917333426122410e-01
[...]
  <CellData>
        <DataArray type="Float64" Name="cross_section_radius" format="ascii">
5.000000000000000e-03
5.000000000000000e-03
5.000000000000000e-03
5.000000000000000e-03
5.000000000000000e-03
5.000000000000000e-03
5.000000000000000e-03
5.000000000000000e-03
5.000000000000000e-03
5.000000000000000e-03
5.000000000000000e-03
5.000000000000000e-03
5.000000000000000e-03
5.000000000000000e-03
5.000000000000000e-03
5.000000000000000e-03
5.000000000000000e-03
5.000000000000000e-03
5.000000000000000e-03
5.000000000000000e-03
5.000000000000000e-03
5.000000000000000e-03
5.000000000000000e-03
5.000000000000000e-03
5.000000000000000e-03
5.000000000000000e-03
5.000000000000000e-03
5.000000000000000e-03
5.000000000000000e-03
5.000000000000000e-03
5.000000000000000e-03
5.000000000000000e-03
5.000000000000000e-03
5.000000000000000e-03
5.000000000000000e-03
5.000000000000000e-03
5.000000000000000e-03
5.000000000000000e-03
5.000000000000000e-03
5.000000000000000e-03
5.000000000000000e-03
5.000000000000000e-03
5.000000000000000e-03
5.000000000000000e-03
5.000000000000000e-03
5.000000000000000e-03
5.000000000000000e-03
5.000000000000000e-03
5.000000000000000e-03
5.000000000000000e-03
5.000000000000000e-03
5.000000000000000e-03
5.000000000000000e-03
5.000000000000000e-03
5.000000000000000e-03
5.000000000000000e-03
        </DataArray>
        <DataArray type="Float64" Name="element_ghosting" NumberOfComponents="3" format="ascii">
0.000000000000000e+00 0.000000000000000e+00 0.000000000000000e+00
1.000000000000000e+00 0.000000000000000e+00 0.000000000000000e+00
0.000000000000000e+00 0.000000000000000e+00 0.000000000000000e+00
0.000000000000000e+00 0.000000000000000e+00 0.000000000000000e+00
1.000000000000000e+00 0.000000000000000e+00 0.000000000000000e+00
0.000000000000000e+00 0.000000000000000e+00 0.000000000000000e+00
0.000000000000000e+00 0.000000000000000e+00 0.000000000000000e+00
0.000000000000000e+00 0.000000000000000e+00 1.000000000000000e+00
0.000000000000000e+00 0.000000000000000e+00 0.000000000000000e+00
0.000000000000000e+00 0.000000000000000e+00 1.000000000000000e+00
0.000000000000000e+00 0.000000000000000e+00 0.000000000000000e+00
0.000000000000000e+00 0.000000000000000e+00 0.000000000000000e+00
0.000000000000000e+00 0.000000000000000e+00 0.000000000000000e+00
0.000000000000000e+00 0.000000000000000e+00 0.000000000000000e+00
0.000000000000000e+00 0.000000000000000e+00 0.000000000000000e+00
0.000000000000000e+00 0.000000000000000e+00 0.000000000000000e+00
0.000000000000000e+00 0.000000000000000e+00 0.000000000000000e+00
0.000000000000000e+00 0.000000000000000e+00 0.000000000000000e+00
0.000000000000000e+00 0.000000000000000e+00 0.000000000000000e+00
0.000000000000000e+00 0.000000000000000e+00 0.000000000000000e+00
0.000000000000000e+00 0.000000000000000e+00 0.000000000000000e+00
0.000000000000000e+00 0.000000000000000e+00 0.000000000000000e+00
0.000000000000000e+00 0.000000000000000e+00 0.000000000000000e+00
1.000000000000000e+00 0.000000000000000e+00 0.000000000000000e+00
0.000000000000000e+00 0.000000000000000e+00 0.000000000000000e+00
0.000000000000000e+00 0.000000000000000e+00 0.000000000000000e+00
0.000000000000000e+00 0.000000000000000e+00 0.000000000000000e+00
0.000000000000000e+00 0.000000000000000e+00 0.000000000000000e+00
0.000000000000000e+00 0.000000000000000e+00 0.000000000000000e+00
0.000000000000000e+00 0.000000000000000e+00 0.000000000000000e+00
0.000000000000000e+00 0.000000000000000e+00 0.000000000000000e+00
0.000000000000000e+00 0.000000000000000e+00 0.000000000000000e+00
0.000000000000000e+00 0.000000000000000e+00 0.000000000000000e+00
0.000000000000000e+00 0.000000000000000e+00 0.000000000000000e+00
0.000000000000000e+00 0.000000000000000e+00 0.000000000000000e+00
0.000000000000000e+00 0.000000000000000e+00 1.000000000000000e+00
0.000000000000000e+00 0.000000000000000e+00 0.000000000000000e+00
0.000000000000000e+00 0.000000000000000e+00 0.000000000000000e+00
0.000000000000000e+00 0.000000000000000e+00 0.000000000000000e+00
0.000000000000000e+00 0.000000000000000e+00 0.000000000000000e+00
0.000000000000000e+00 0.000000000000000e+00 0.000000000000000e+00
0.000000000000000e+00 0.000000000000000e+00 0.000000000000000e+00
0.000000000000000e+00 0.000000000000000e+00 0.000000000000000e+00
0.000000000000000e+00 0.000000000000000e+00 0.000000000000000e+00
0.000000000000000e+00 0.000000000000000e+00 0.000000000000000e+00
0.000000000000000e+00 0.000000000000000e+00 0.000000000000000e+00
0.000000000000000e+00 0.000000000000000e+00 0.000000000000000e+00
1.000000000000000e+00 0.000000000000000e+00 0.000000000000000e+00
0.000000000000000e+00 0.000000000000000e+00 0.000000000000000e+00
0.000000000000000e+00 0.000000000000000e+00 0.000000000000000e+00
1.000000000000000e+00 0.000000000000000e+00 0.000000000000000e+00
0.000000000000000e+00 0.000000000000000e+00 0.000000000000000e+00
0.000000000000000e+00 0.000000000000000e+00 0.000000000000000e+00
0.000000000000000e+00 0.000000000000000e+00 0.000000000000000e+00
0.000000000000000e+00 0.000000000000000e+00 0.000000000000000e+00
0.000000000000000e+00 0.000000000000000e+00 0.000000000000000e+00
        </DataArray>
        <DataArray type="Float64" Name="element_owner" format="ascii">
1.000000000000000e+00
1.000000000000000e+00
1.000000000000000e+00
1.000000000000000e+00
1.000000000000000e+00
1.000000000000000e+00
1.000000000000000e+00
1.000000000000000e+00
1.000000000000000e+00
1.000000000000000e+00
1.000000000000000e+00
1.000000000000000e+00
1.000000000000000e+00
1.000000000000000e+00
1.000000000000000e+00
1.000000000000000e+00
1.000000000000000e+00
1.000000000000000e+00
1.000000000000000e+00
1.000000000000000e+00
1.000000000000000e+00
1.000000000000000e+00
1.000000000000000e+00
1.000000000000000e+00
1.000000000000000e+00
1.000000000000000e+00
1.000000000000000e+00
1.000000000000000e+00
1.000000000000000e+00
1.000000000000000e+00
1.000000000000000e+00
1.000000000000000e+00
1.000000000000000e+00
1.000000000000000e+00
1.000000000000000e+00
1.000000000000000e+00
1.000000000000000e+00
1.000000000000000e+00
1.000000000000000e+00
1.000000000000000e+00
1.000000000000000e+00
1.000000000000000e+00
1.000000000000000e+00
1.000000000000000e+00
1.000000000000000e+00
1.000000000000000e+00
1.000000000000000e+00
1.000000000000000e+00
1.000000000000000e+00
1.000000000000000e+00
1.000000000000000e+00
1.000000000000000e+00
1.000000000000000e+00
1.000000000000000e+00
1.000000000000000e+00
1.000000000000000e+00
        </DataArray>
      </CellData>

    </Piece>
  </UnstructuredGrid>
</VTKFile>
