<?xml version="1.0" ?> 
<!-- 
# vtk DataFile Version 3.0
-->
<VTKFile type="UnstructuredGrid" version="0.1" compressor="vtkZLibDataCompressor" byte_order="LittleEndian">
  <UnstructuredGrid>
    <FieldData>
      <DataArray type="Float64" Name="TIME" NumberOfTuples="1" format="ascii">
1.000000000000000e-03 
      </DataArray>
    </FieldData>

    <Piece NumberOfPoints="306" NumberOfCells="51" >
      <Points>
        <DataArray type="Float64" NumberOfComponents="3" format="ascii">
-4.734644974748720e-01 -9.946853046864344e-02 -1.500110885311018e-01
-4.592546739294704e-01 -7.304765896561849e-02 -1.493168709189353e-01
-4.450397862726108e-01 -4.661737156536674e-02 -1.486224059007856e-01
-4.308232105785983e-01 -2.018394553270604e-02 -1.479278584139748e-01
-4.166083229217387e-01 6.246341867545729e-03 -1.472333933958251e-01
-4.023984993763373e-01 3.266721337057067e-02 -1.465391757836585e-01
-1.192474411369256e-01 -2.224565804970022e-01 3.569595234752584e-01
-1.208707473953918e-01 -1.980419498306890e-01 3.743278482213926e-01
-1.224945130563265e-01 -1.736204097216642e-01 3.917010882761577e-01
-1.241184318514174e-01 -1.491965664650689e-01 4.090759667671329e-01
-1.257421975123522e-01 -1.247750263560441e-01 4.264492068218979e-01
-1.273655037708183e-01 -1.003603956897309e-01 4.438175315680321e-01
2.899457911282239e-01 -4.247104591979123e-01 -3.708798294953614e-02
3.032395835096530e-01 -4.189368071799639e-01 -1.082247759747109e-02
3.165327290107540e-01 -4.131634361098296e-01 1.544174966642849e-02
3.298256588850791e-01 -4.073901586889667e-01 4.170555090093958e-02
3.431188043861801e-01 -4.016167876188323e-01 6.796977816483918e-02
3.564125967676091e-01 -3.958431356008840e-01 9.423528351690422e-02
3.508825880421682e-01 -3.986021878754028e-01 -2.559593147877375e-01
3.476660556972967e-01 -3.775775792524068e-01 -2.347950023424895e-01
3.444487605638127e-01 -3.565479847221292e-01 -2.136256708597212e-01
3.412312111674579e-01 -3.355167282227577e-01 -1.924546663644460e-01
3.380139160339740e-01 -3.144871336924802e-01 -1.712853348816777e-01
3.347973836891024e-01 -2.934625250694841e-01 -1.501210224364297e-01
3.295889157385658e-01 -2.930996917920353e-01 -4.136750058422901e-01
3.178902696493537e-01 -2.853351988601996e-01 -3.871655872312728e-01
3.061925690203787e-01 -2.775713334385280e-01 -3.606583110563129e-01
2.944951835448161e-01 -2.698076771869111e-01 -3.341517490267054e-01
2.827974829158411e-01 -2.620438117652394e-01 -3.076444728517455e-01
2.710988368266291e-01 -2.542793188334037e-01 -2.811350542407282e-01
-3.884134292182439e-01 -1.814277879790344e-01 -2.084706724739732e-01
-3.755971173192532e-01 -1.581801545736367e-01 -2.224568498095027e-01
-3.627776173238992e-01 -1.349267382490887e-01 -2.364465062489626e-01
-3.499570546297574e-01 -1.116713942848240e-01 -2.504373223897325e-01
-3.371375546344034e-01 -8.841797796027606e-02 -2.644269788291925e-01
-3.243212427354127e-01 -6.517034455487837e-02 -2.784131561647220e-01
-4.506407589859487e-01 -2.851465165395479e-01 -2.723186331526286e-01
-4.351405210991240e-01 -2.610723432984027e-01 -2.633435227712639e-01
-4.196358038758897e-01 -2.369912129820490e-01 -2.543658187175308e-01
-4.041295935405188e-01 -2.129077636406256e-01 -2.453872501063416e-01
-3.886248763172845e-01 -1.888266333242718e-01 -2.364095460526085e-01
-3.731246384304598e-01 -1.647524600831267e-01 -2.274344356712439e-01
-4.018573470995268e-01 -9.400138278395809e-02 -3.840468072250923e-01
-4.038989402175023e-01 -6.408232952369185e-02 -3.851990845814822e-01
-4.059415466667750e-01 -3.414842613840167e-02 -3.863519338631486e-01
-4.079844908931466e-01 -4.209572711436880e-03 -3.875049737865737e-01
-4.100270973424193e-01 2.572433067385330e-02 -3.886578230682400e-01
-4.120686904603948e-01 5.564338393411952e-02 -3.898101004246299e-01
-4.661768367434587e-01 -3.755261126546784e-01 4.602386165079817e-02
-4.531563891982342e-01 -3.488027476130451e-01 4.192389519270451e-02
-4.401311358413618e-01 -3.220695190503201e-01 3.782241544818261e-02
-4.271042805472736e-01 -2.953330026472312e-01 3.372043127485130e-02
-4.140790271904012e-01 -2.685997740845062e-01 2.961895153032940e-02
-4.010585796451767e-01 -2.418764090428729e-01 2.551898507223574e-02
-3.579123419185659e-01 -3.580133230377308e-01 1.780867733379770e-01
-3.521941063935596e-01 -3.301813121980212e-01 1.877418144810402e-01
-3.464735016605590e-01 -3.023377698601256e-01 1.974008559491273e-01
-3.407521071915601e-01 -2.744903836895013e-01 2.070612308588891e-01
-3.350315024585594e-01 -2.466468413516058e-01 2.167202723269762e-01
-3.293132669335532e-01 -2.188148305118962e-01 2.263753134700395e-01
-4.354441600892212e-01 -2.464615010534914e-01 -2.018886929456609e-02
-4.290742774987777e-01 -2.252905964212956e-01 -4.047305119431303e-02
-4.227032649980544e-01 -2.041159364258825e-01 -6.076083116754433e-02
-4.163318758605712e-01 -1.829400246427304e-01 -8.104981049860377e-02
-4.099608633598479e-01 -1.617653646473173e-01 -1.013375904718351e-01
-4.035909807694045e-01 -1.405944600151215e-01 -1.216217723715820e-01
-4.623326597181180e-01 -1.099355327148161e-01 -3.460005111050745e-01
-4.665959821879428e-01 -8.037702752963975e-02 -3.430463644841863e-01
-4.708612979955594e-01 -5.080470211719447e-02 -3.400908366372372e-01
-4.751272782491066e-01 -2.122776996232621e-02 -3.371348483816009e-01
-4.793925940567232e-01 8.344555450119091e-03 -3.341793205346518e-01
-4.836559165265481e-01 3.790306063529546e-02 -3.312251739137635e-01
-2.558562165034206e-01 -1.334565501831436e-01 1.921177996154333e-01
-2.434812171873842e-01 -1.209889688540278e-01 1.677994059037441e-01
-2.311065466275544e-01 -1.085217187406672e-01 1.434816582383832e-01
-2.187319856531270e-01 -9.605457903255830e-02 1.191641259217984e-01
-2.063573150932973e-01 -8.358732891919771e-02 9.484637825643749e-02
-1.939823157772609e-01 -7.111974759008190e-02 7.052798454474840e-02
3.195327489844553e-01 -2.370519482298566e-01 3.150887134720406e-01
3.075777683634264e-01 -2.222423492386750e-01 2.918981090925174e-01
2.956223287324160e-01 -2.074321816347976e-01 2.687066143126475e-01
2.836667360980784e-01 -1.926218244933550e-01 2.455148227326623e-01
2.717112964670681e-01 -1.778116568894776e-01 2.223233279527925e-01
2.597563158460392e-01 -1.630020578982961e-01 1.991327235732692e-01
2.389198063720234e-01 -3.218057592618848e-01 1.030052378756054e-01
2.244412322634006e-01 -3.088720422084643e-01 1.258763697061469e-01
2.099626713385815e-01 -2.959383369321419e-01 1.487474807108451e-01
1.954841148083637e-01 -2.830046355815189e-01 1.716185847735956e-01
1.810055538835446e-01 -2.700709303051966e-01 1.944896957782939e-01
1.665269797749218e-01 -2.571372132517762e-01 2.173608276088353e-01
-3.952179244723280e-01 -1.406543539448657e-01 3.723413963131278e-01
-3.959556305965001e-01 -1.402272737590956e-01 3.423567642001263e-01
-3.966932259166464e-01 -1.398002577210970e-01 3.123766358018664e-01
-3.974307843021177e-01 -1.393732630656889e-01 2.823980086418536e-01
-3.981683796222641e-01 -1.389462470276903e-01 2.524178802435937e-01
-3.989060857464362e-01 -1.385191668419202e-01 2.224332481305922e-01
-2.675898474856843e-01 -2.637734948088847e-01 3.017589040832040e-01
-2.602873819544408e-01 -2.429825637544844e-01 2.813955930959205e-01
-2.529834941394994e-01 -2.221875833003061e-01 2.610283159953941e-01
-2.456791322299922e-01 -2.013912530462020e-01 2.406597168571200e-01
-2.383752444150509e-01 -1.805962725920237e-01 2.202924397565935e-01
-2.310727788838074e-01 -1.598053415376234e-01 1.999291287693100e-01
4.486552106882308e-01 -3.852645740192459e-01 2.711082860145684e-01
4.422884561322984e-01 -3.570794312800435e-01 2.792083660622646e-01
4.359190134326071e-01 -3.288823883309490e-01 2.873118660909632e-01
4.295486746849961e-01 -3.006813786452236e-01 2.954165061133289e-01
4.231792319853049e-01 -2.724843356961290e-01 3.035200061420274e-01
4.168124774293726e-01 -2.442991929569267e-01 3.116200861897237e-01
4.593544097775660e-01 -3.567238851979596e-01 -3.961282051919112e-01
4.614878300762516e-01 -3.481871612982281e-01 -3.674486147396062e-01
4.636211618268257e-01 -3.396507917172312e-01 -3.387702146404530e-01
4.657544640613626e-01 -3.311145402424793e-01 -3.100922113256839e-01
4.678877958119367e-01 -3.225781706614825e-01 -2.814138112265309e-01
4.700212161106224e-01 -3.140414467617510e-01 -2.527342207742259e-01
8.174899409748169e-02 -2.106262319016867e-01 2.878531766277939e-01
8.522205013078932e-02 -1.997268420420382e-01 2.601209421947517e-01
8.869493422303180e-02 -1.888279917799903e-01 2.323900807052733e-01
9.216776100158591e-02 -1.779293213838092e-01 2.046596768636494e-01
9.564064509382840e-02 -1.670304711217612e-01 1.769288153741709e-01
9.911370112713604e-02 -1.561310812621128e-01 1.491965809411288e-01
-4.579654916262478e-01 -3.044425270627962e-01 1.136541717461881e-01
-4.486136726072240e-01 -2.856249796923490e-01 9.223898497107334e-02
-4.392606536101183e-01 -2.668050177494691e-01 7.082105030758545e-02
-4.299072346203186e-01 -2.479842509491115e-01 4.940219968130651e-02
-4.205542156232129e-01 -2.291642890062316e-01 2.798426501781862e-02
-4.112023966041891e-01 -2.103467416357845e-01 6.569078242703921e-03
-4.426767992306176e-01 -1.401672770540299e-01 -4.055896602954131e-01
-4.363732204798457e-01 -1.321146017496288e-01 -3.773888036336023e-01
-4.300702769999371e-01 -1.240627379889863e-01 -3.491907890371111e-01
-4.237675452769830e-01 -1.160111447429300e-01 -3.209937217957265e-01
-4.174646017970744e-01 -1.079592809822875e-01 -2.927957071992354e-01
-4.111610230463025e-01 -9.990660567788634e-02 -2.645948505374247e-01
2.259359053966377e-02 -3.224404610812483e-01 4.689370416696592e-01
6.743272470272255e-03 -2.969617421675798e-01 4.688743836810541e-01
-9.111940811826657e-03 -2.714751544055988e-01 4.688117063411540e-01
-2.496878583149471e-02 -2.459859436941801e-01 4.687490225508223e-01
-4.082399911359363e-02 -2.204993559321991e-01 4.686863452109221e-01
-5.667431718298513e-02 -1.950206370185306e-01 4.686236872223172e-01
-1.346038909949756e-01 -3.638380679644982e-01 2.642363778359626e-02
-1.276454969181045e-01 -3.372684291112598e-01 1.433684745458092e-02
-1.206846658800673e-01 -3.106894850681499e-01 2.245824103070663e-03
-1.137230225216413e-01 -2.841074392950829e-01 -9.846610255937905e-03
-1.067621914836041e-01 -2.575284952519730e-01 -2.193763360744817e-02
-9.980379740673313e-02 -2.309588563987345e-01 -3.402442393646350e-02
-5.133662240267183e-02 -1.901239981987651e-01 1.142329291319767e-01
-4.064258948964060e-02 -1.789940158995195e-01 8.850931369594858e-02
-2.994902354108332e-02 -1.678645196008663e-01 6.278682150450446e-02
-1.925561324735071e-02 -1.567351853024105e-01 3.706470372792164e-02
-8.562047298793446e-03 -1.456056890037572e-01 1.134221153647749e-02
2.131985614237782e-03 -1.344757067045117e-01 -1.438140389955064e-02
-3.986301427647573e-01 -1.286452338020801e-01 -1.731956790775273e-02
-3.970725964906223e-01 -1.008017689303958e-01 -2.840417301369136e-02
-3.955143880171290e-01 -7.294646625660121e-02 -3.949349080040873e-02
-3.939559588105164e-01 -4.508721764876991e-02 -5.058437948071902e-02
-3.923977503370231e-01 -1.723191497497533e-02 -6.167369726743640e-02
-3.908402040628881e-01 1.061154989670897e-02 -7.275830237337502e-02
-4.193562388059470e-01 -1.172864578224088e-01 3.503600849876114e-01
-4.164227892079277e-01 -1.057511610028110e-01 3.228235707562616e-01
-4.134895025045147e-01 -9.421650473883637e-02 2.952885856289574e-01
-4.105562700993040e-01 -8.268206199340279e-02 2.677541102030018e-01
-4.076229833958910e-01 -7.114740572942815e-02 2.402191250756975e-01
-4.046895337978718e-01 -5.961210890983040e-02 2.126826108443478e-01
-7.074644930614855e-02 -4.022856717142194e-01 -4.084552291875347e-01
-7.151048277875215e-02 -3.788827280624382e-01 -3.896907176558242e-01
-7.227474445408577e-02 -3.554727943823091e-01 -3.709206015100321e-01
-7.303908219699609e-02 -3.320605306927306e-01 -3.521486171595461e-01
-7.380334387232972e-02 -3.086505970126014e-01 -3.333785010137540e-01
-7.456737734493332e-02 -2.852476533608203e-01 -3.146139894820436e-01
-6.007046240714246e-02 -3.634426248099166e-01 -3.215942341324516e-01
-4.622986416274611e-02 -3.430433688134272e-01 -3.044895688218401e-01
-3.238648370854411e-02 -3.226400121986656e-01 -2.873814651650887e-01
-1.854217585107356e-02 -3.022352887111465e-01 -2.702722153929571e-01
-4.698795396871552e-03 -2.818319320963848e-01 -2.531641117362056e-01
9.141802847524782e-03 -2.614326760998955e-01 -2.360594464255941e-01
1.745978704602665e-01 -2.234564804976281e-01 1.542877813755894e-01
1.893638844173128e-01 -2.166747278951574e-01 1.795034260091212e-01
2.041282633626226e-01 -2.098937262228384e-01 2.047162785638266e-01
2.188920973040201e-01 -2.031129748605699e-01 2.299282004255899e-01
2.336564762493299e-01 -1.963319731882509e-01 2.551410529802953e-01
2.484224902063762e-01 -1.895502205857803e-01 2.803566976138271e-01
3.404938250555656e-01 -3.945040875306488e-01 -2.681231559003585e-01
3.361983424936216e-01 -3.649341314882024e-01 -2.653258072711235e-01
3.319006848682481e-01 -3.353492023829920e-01 -2.625270421745614e-01
3.276023022217313e-01 -3.057592822568604e-01 -2.597278049222235e-01
3.233046445963578e-01 -2.761743531516501e-01 -2.569290398256615e-01
3.190091620344138e-01 -2.466043971092038e-01 -2.541316911964265e-01
2.771492359081810e-01 -2.970573094730263e-01 -2.696604730331120e-01
2.893020929547150e-01 -2.840817991366587e-01 -2.938243969774799e-01
3.014544921309120e-01 -2.711067776648659e-01 -3.179874105232507e-01
3.136067386836632e-01 -2.581319191479313e-01 -3.421501206028228e-01
3.257591378598601e-01 -2.451568976761385e-01 -3.663131341485937e-01
3.379119949063941e-01 -2.321813873397709e-01 -3.904770580929616e-01
2.915847376621570e-01 -4.577553677664129e-01 -4.943136551273548e-01
3.106397906828051e-01 -4.555390286971260e-01 -4.712507009236269e-01
3.296934813240997e-01 -4.533228480894601e-01 -4.481893956522114e-01
3.487467178389432e-01 -4.511067203023344e-01 -4.251286400248999e-01
3.678004084802379e-01 -4.488905396946685e-01 -4.020673347534844e-01
3.868554615008860e-01 -4.466742006253817e-01 -3.790043805497566e-01
-4.188942979813738e-01 -2.063813186464225e-01 -1.093928989656544e-01
-4.240374411583201e-01 -1.969927099342258e-01 -8.136936843528923e-02
-4.291802526136709e-01 -1.876047067669563e-01 -5.334764536194752e-02
-4.343229534951565e-01 -1.782169054479960e-01 -2.532652477428030e-02
-4.394657649505073e-01 -1.688289022807266e-01 2.695198299061435e-03
-4.446089081274536e-01 -1.594402935685298e-01 3.071872882942659e-02
-2.104212499385061e-01 -3.308521046645381e-01 -2.383952974504242e-02
-2.048644282492534e-01 -3.137703497590939e-01 1.907523895685504e-04
-1.993070976167254e-01 -2.966870303542337e-01 2.422323543167275e-02
-1.937495973364390e-01 -2.796031894495681e-01 4.825645210960801e-02
-1.881922667039111e-01 -2.625198700447079e-01 7.228893515171222e-02
-1.826354450146584e-01 -2.454381151392638e-01 9.631921728632319e-02
5.538450150021695e-02 -4.629291333564562e-01 -1.992878698101304e-02
5.700056383499054e-02 -4.528774953647053e-01 -4.814848569401428e-02
5.861662427926505e-02 -4.428258691315431e-01 -7.636815139509946e-02
6.023268409337321e-02 -4.327742468179105e-01 -1.045878060922126e-01
6.184874453764773e-02 -4.227226205847482e-01 -1.328074717932978e-01
6.346480687242131e-02 -4.126709825929974e-01 -1.610271705062990e-01
2.461886541966591e-02 -3.905030373410940e-01 1.005197380116514e-01
4.940919732634003e-02 -3.757268827848945e-01 1.087139834524763e-01
7.420031025150667e-02 -3.609502627064904e-01 1.169084870527016e-01
9.899168351617083e-02 -3.461734874540182e-01 1.251030767060603e-01
1.237827964413375e-01 -3.313968673756142e-01 1.332975803062856e-01
1.485731283480116e-01 -3.166207128194146e-01 1.414918257471105e-01
-1.349597222804028e-01 -3.741176343364503e-01 -7.577592319832128e-02
-1.260123342272728e-01 -3.724243463891206e-01 -1.043588550532501e-01
-1.170655865094342e-01 -3.707311796248696e-01 -1.329397413212555e-01
-1.081190522366927e-01 -3.690380532549781e-01 -1.615199457269532e-01
-9.917230451885414e-02 -3.673448864907270e-01 -1.901008319949586e-01
-9.022491646572410e-02 -3.656515985433973e-01 -2.186837638498874e-01
-2.380684004441112e-01 -4.930706134811594e-01 -1.057091042527527e-01
-2.259328571375579e-01 -4.657792200387136e-01 -1.086028725026456e-01
-2.137929704118950e-01 -4.384780587633158e-01 -1.114976764579863e-01
-2.016516358798624e-01 -4.111736415436005e-01 -1.143928256484763e-01
-1.895117491541996e-01 -3.838724802682026e-01 -1.172876296038171e-01
-1.773762058476464e-01 -3.565810868257570e-01 -1.201813978537100e-01
-3.752058328692728e-01 -2.176123695228112e-01 -4.931666575972279e-02
-3.813800175682496e-01 -2.092295286680205e-01 -2.118291331394507e-02
-3.875537301602875e-01 -2.008473288043123e-01 6.948687893994615e-03
-3.937272853833459e-01 -1.924653426042983e-01 3.507957202265496e-02
-3.999009979753839e-01 -1.840831427405900e-01 6.321117323059466e-02
-4.060751826743607e-01 -1.757003018857993e-01 9.134492567637237e-02
-2.076781887769452e-01 -3.995000320305246e-01 -4.144906243158536e-02
-2.004721701186741e-01 -3.943262748037690e-01 -7.010634182009280e-02
-1.932665166000417e-01 -3.891527797389552e-01 -9.876216910180738e-02
-1.860609847946222e-01 -3.839793720614553e-01 -1.274175123479243e-01
-1.788553312759898e-01 -3.788058769966416e-01 -1.560733396296389e-01
-1.716493126177187e-01 -3.736321197698859e-01 -1.847306190181463e-01
-2.590337363311053e-01 -1.917514379175480e-01 -3.182861116288576e-04
-2.436116898340405e-01 -1.684338569224314e-01 1.058081557037709e-02
-2.281856167228863e-01 -1.451101878312777e-01 2.148276294970358e-02
-2.127582014070357e-01 -1.217844893747782e-01 3.238565889480357e-02
-1.973321282958815e-01 -9.846082028362443e-02 4.328760627413007e-02
-1.819100817988167e-01 -7.514323928850788e-02 5.418670795613601e-02
1.464941546668489e-01 -3.124124199374915e-01 5.790345809828493e-02
1.446680236946561e-01 -3.008649386903023e-01 3.027546310425989e-02
1.428419135337718e-01 -2.893175890427617e-01 2.647782969757402e-03
1.410158103099904e-01 -2.777702832617707e-01 -2.497979221157091e-02
1.391897001491061e-01 -2.662229336142301e-01 -5.260747234607341e-02
1.373635691769133e-01 -2.546754523670410e-01 -8.023546734009844e-02
1.954706204113193e-01 -3.036674428622191e-01 -3.498232622973658e-02
2.007064600641557e-01 -2.755631483289564e-01 -2.585635458361041e-02
2.059445088214955e-01 -2.474469960369135e-01 -1.672653250920587e-02
2.111832939470030e-01 -2.193268911586106e-01 -7.595426958708556e-03
2.164213427043427e-01 -1.912107388665677e-01 1.534395115695982e-03
2.216571823571792e-01 -1.631064443333050e-01 1.066036676182215e-02
-2.411086609774217e-01 -2.414016334827878e-01 -1.878470459194538e-02
-2.400150325469919e-01 -2.130125096797942e-01 -2.845107117085988e-02
-2.389209189333726e-01 -1.846107911734691e-01 -3.812172618855118e-02
-2.378266435920234e-01 -1.562048744327001e-01 -4.779381068583474e-02
-2.367325299784040e-01 -1.278031559263750e-01 -5.746446570352605e-02
-2.356389015479743e-01 -9.941403212338146e-02 -6.713083228244054e-02
-3.636363636075355e-01 -2.204603243490256e-01 1.166182998533409e-01
-3.704403101383085e-01 -1.912750241115986e-01 1.150233983126375e-01
-3.772474955046199e-01 -1.620758309978566e-01 1.134277375620011e-01
-3.840557604827773e-01 -1.328720069253428e-01 1.118318237413870e-01
-3.908629458490886e-01 -1.036728138116008e-01 1.102361629907506e-01
-3.976668923798617e-01 -7.448751357417387e-02 1.086412614500472e-01
-2.270064083201423e-01 -2.969842139811001e-01 -8.118877306373544e-02
-2.009369861212024e-01 -2.914450086142390e-01 -9.495799099751472e-02
-1.748697914118278e-01 -2.859062765421852e-01 -1.087260324269190e-01
-1.488033391989750e-01 -2.803677022350671e-01 -1.224936816881984e-01
-1.227361444896004e-01 -2.748289701630133e-01 -1.362617231176027e-01
-9.666672229066053e-02 -2.692897647961522e-01 -1.500309410513820e-01
-4.532459928735659e-01 -4.637997652375310e-01 -1.600497934189006e-01
-4.595133099826946e-01 -4.474571736455325e-01 -1.356819588384592e-01
-4.657813546157148e-01 -4.311126849697222e-01 -1.113112955864298e-01
-4.720496417566988e-01 -4.147675639326412e-01 -8.693968944387107e-02
-4.783176863897191e-01 -3.984230752568308e-01 -6.256902619184165e-02
-4.845850034988478e-01 -3.820804836648324e-01 -3.820119161140027e-02
2.715631874935120e-01 -4.204032469885940e-01 1.208119656135812e-01
2.898652090401113e-01 -3.978242245030970e-01 1.133662813697641e-01
3.081702493592458e-01 -3.752414777878598e-01 1.059193690196942e-01
3.264762959358921e-01 -3.526574896627090e-01 9.847204730087333e-02
3.447813362550267e-01 -3.300747429474717e-01 9.102513495080342e-02
3.630833578016260e-01 -3.074957204619748e-01 8.357945070698637e-02
-2.538719860661572e-01 -4.983845529058695e-01 -2.329967734020177e-01
-2.308305706320944e-01 -4.813679576638282e-01 -2.240666873717557e-01
-2.077852960121155e-01 -4.643485123275779e-01 -2.151351056494284e-01
-1.847387349968312e-01 -4.473281169599245e-01 -2.062030253630794e-01
-1.616934603768522e-01 -4.303086716236741e-01 -1.972714436407522e-01
-1.386520449427894e-01 -4.132920763816329e-01 -1.883413576104902e-01
-3.982032838639614e-01 -2.766531847876629e-01 2.985629450343841e-01
-3.775538500645078e-01 -2.619902471976881e-01 2.824804217182134e-01
-3.569036473236250e-01 -2.473267635907961e-01 2.663972995227423e-01
-3.362531882689325e-01 -2.326630979782648e-01 2.503139777008379e-01
-3.156029855280497e-01 -2.179996143713728e-01 2.342308555053669e-01
-2.949535517285962e-01 -2.033366767813981e-01 2.181483321891962e-01
        </DataArray>
      </Points>

      <Cells>
        <DataArray type="Int32" Name="connectivity" format="ascii">
0 1 2 3 4 5 6 7 8 9 10 11 12 13 14 15 16 17 18 19 20 21 22 23 24 25 26 27 28 29 30 31 32 33 34 35 36 37 38 39 40 41 42 43 44 45 46 47 48 49 50 51 52 53 54 55 56 57 58 59 60 61 62 63 64 65 66 67 68 69 70 71 72 73 74 75 76 77 78 79 80 81 82 83 84 85 86 87 88 89 90 91 92 93 94 95 96 97 98 99 100 101 102 103 104 105 106 107 108 109 110 111 112 113 114 115 116 117 118 119 120 121 122 123 124 125 126 127 128 129 130 131 132 133 134 135 136 137 138 139 140 141 142 143 144 145 146 147 148 149 150 151 152 153 154 155 156 157 158 159 160 161 162 163 164 165 166 167 168 169 170 171 172 173 174 175 176 177 178 179 180 181 182 183 184 185 186 187 188 189 190 191 192 193 194 195 196 197 198 199 200 201 202 203 204 205 206 207 208 209 210 211 212 213 214 215 216 217 218 219 220 221 222 223 224 225 226 227 228 229 230 231 232 233 234 235 236 237 238 239 240 241 242 243 244 245 246 247 248 249 250 251 252 253 254 255 256 257 258 259 260 261 262 263 264 265 266 267 268 269 270 271 272 273 274 275 276 277 278 279 280 281 282 283 284 285 286 287 288 289 290 291 292 293 294 295 296 297 298 299 300 301 302 303 304 305 
        </DataArray>
        <DataArray type="Int32" Name="offsets" format="ascii">
6 12 18 24 30 36 42 48 54 60 66 72 78 84 90 96 102 108 114 120 126 132 138 144 150 156 162 168 174 180 186 192 198 204 210 216 222 228 234 240 246 252 258 264 270 276 282 288 294 300 306 
        </DataArray>
        <DataArray type="UInt8" Name="types" format="ascii">
4 4 4 4 4 4 4 4 4 4 4 4 4 4 4 4 4 4 4 4 4 4 4 4 4 4 4 4 4 4 4 4 4 4 4 4 4 4 4 4 4 4 4 4 4 4 4 4 4 4 4 
        </DataArray>
      </Cells>

  <CellData>
        <DataArray type="Float64" Name="cross_section_radius" format="ascii">
5.000000000000000e-03
5.000000000000000e-03
5.000000000000000e-03
5.000000000000000e-03
5.000000000000000e-03
5.000000000000000e-03
5.000000000000000e-03
5.000000000000000e-03
5.000000000000000e-03
5.000000000000000e-03
5.000000000000000e-03
5.000000000000000e-03
5.000000000000000e-03
5.000000000000000e-03
5.000000000000000e-03
5.000000000000000e-03
5.000000000000000e-03
5.000000000000000e-03
5.000000000000000e-03
5.000000000000000e-03
5.000000000000000e-03
5.000000000000000e-03
5.000000000000000e-03
5.000000000000000e-03
5.000000000000000e-03
5.000000000000000e-03
5.000000000000000e-03
5.000000000000000e-03
5.000000000000000e-03
5.000000000000000e-03
5.000000000000000e-03
5.000000000000000e-03
5.000000000000000e-03
5.000000000000000e-03
5.000000000000000e-03
5.000000000000000e-03
5.000000000000000e-03
5.000000000000000e-03
5.000000000000000e-03
5.000000000000000e-03
5.000000000000000e-03
5.000000000000000e-03
5.000000000000000e-03
5.000000000000000e-03
5.000000000000000e-03
5.000000000000000e-03
5.000000000000000e-03
5.000000000000000e-03
5.000000000000000e-03
5.000000000000000e-03
5.000000000000000e-03
        </DataArray>
        <DataArray type="Float64" Name="element_ghosting" NumberOfComponents="3" format="ascii">
0.000000000000000e+00 0.000000000000000e+00 1.000000000000000e+00
0.000000000000000e+00 1.000000000000000e+00 0.000000000000000e+00
0.000000000000000e+00 0.000000000000000e+00 0.000000000000000e+00
0.000000000000000e+00 0.000000000000000e+00 0.000000000000000e+00
0.000000000000000e+00 0.000000000000000e+00 0.000000000000000e+00
0.000000000000000e+00 0.000000000000000e+00 0.000000000000000e+00
0.000000000000000e+00 0.000000000000000e+00 0.000000000000000e+00
0.000000000000000e+00 0.000000000000000e+00 1.000000000000000e+00
0.000000000000000e+00 0.000000000000000e+00 0.000000000000000e+00
0.000000000000000e+00 0.000000000000000e+00 0.000000000000000e+00
0.000000000000000e+00 0.000000000000000e+00 0.000000000000000e+00
0.000000000000000e+00 0.000000000000000e+00 1.000000000000000e+00
0.000000000000000e+00 1.000000000000000e+00 0.000000000000000e+00
0.000000000000000e+00 1.000000000000000e+00 0.000000000000000e+00
0.000000000000000e+00 1.000000000000000e+00 0.000000000000000e+00
0.000000000000000e+00 1.000000000000000e+00 0.000000000000000e+00
0.000000000000000e+00 1.000000000000000e+00 0.000000000000000e+00
0.000000000000000e+00 1.000000000000000e+00 0.000000000000000e+00
0.000000000000000e+00 0.000000000000000e+00 0.000000000000000e+00
0.000000000000000e+00 1.000000000000000e+00 0.000000000000000e+00
0.000000000000000e+00 0.000000000000000e+00 0.000000000000000e+00
0.000000000000000e+00 0.000000000000000e+00 0.000000000000000e+00
0.000000000000000e+00 1.000000000000000e+00 0.000000000000000e+00
0.000000000000000e+00 0.000000000000000e+00 0.000000000000000e+00
0.000000000000000e+00 1.000000000000000e+00 0.000000000000000e+00
0.000000000000000e+00 1.000000000000000e+00 0.000000000000000e+00
0.000000000000000e+00 1.000000000000000e+00 0.000000000000000e+00
0.000000000000000e+00 0.000000000000000e+00 0.000000000000000e+00
0.000000000000000e+00 0.000000000000000e+00 0.000000000000000e+00
0.000000000000000e+00 1.000000000000000e+00 0.000000000000000e+00
0.000000000000000e+00 0.000000000000000e+00 0.000000000000000e+00
0.000000000000000e+00 0.000000000000000e+00 0.000000000000000e+00
0.000000000000000e+00 0.000000000000000e+00 0.000000000000000e+00
0.000000000000000e+00 0.000000000000000e+00 0.000000000000000e+00
0.000000000000000e+00 0.000000000000000e+00 0.000000000000000e+00
0.000000000000000e+00 0.000000000000000e+00 0.000000000000000e+00
0.000000000000000e+00 0.000000000000000e+00 0.000000000000000e+00
0.000000000000000e+00 0.000000000000000e+00 0.000000000000000e+00
0.000000000000000e+00 0.000000000000000e+00 0.000000000000000e+00
0.000000000000000e+00 0.000000000000000e+00 0.000000000000000e+00
0.000000000000000e+00 0.000000000000000e+00 0.000000000000000e+00
0.000000000000000e+00 0.000000000000000e+00 0.000000000000000e+00
0.000000000000000e+00 0.000000000000000e+00 0.000000000000000e+00
0.000000000000000e+00 0.000000000000000e+00 0.000000000000000e+00
0.000000000000000e+00 0.000000000000000e+00 0.000000000000000e+00
0.000000000000000e+00 1.000000000000000e+00 0.000000000000000e+00
0.000000000000000e+00 0.000000000000000e+00 0.000000000000000e+00
0.000000000000000e+00 0.000000000000000e+00 0.000000000000000e+00
0.000000000000000e+00 0.000000000000000e+00 0.000000000000000e+00
0.000000000000000e+00 0.000000000000000e+00 0.000000000000000e+00
0.000000000000000e+00 0.000000000000000e+00 0.000000000000000e+00
        </DataArray>
        <DataArray type="Float64" Name="element_owner" format="ascii">
0.000000000000000e+00
0.000000000000000e+00
0.000000000000000e+00
0.000000000000000e+00
0.000000000000000e+00
0.000000000000000e+00
0.000000000000000e+00
0.000000000000000e+00
0.000000000000000e+00
0.000000000000000e+00
0.000000000000000e+00
0.000000000000000e+00
0.000000000000000e+00
0.000000000000000e+00
0.000000000000000e+00
0.000000000000000e+00
0.000000000000000e+00
0.000000000000000e+00
0.000000000000000e+00
0.000000000000000e+00
0.000000000000000e+00
0.000000000000000e+00
0.000000000000000e+00
0.000000000000000e+00
0.000000000000000e+00
0.000000000000000e+00
0.000000000000000e+00
0.000000000000000e+00
0.000000000000000e+00
0.000000000000000e+00
0.000000000000000e+00
0.000000000000000e+00
0.000000000000000e+00
0.000000000000000e+00
0.000000000000000e+00
0.000000000000000e+00
0.000000000000000e+00
0.000000000000000e+00
0.000000000000000e+00
0.000000000000000e+00
0.000000000000000e+00
0.000000000000000e+00
0.000000000000000e+00
0.000000000000000e+00
0.000000000000000e+00
0.000000000000000e+00
0.000000000000000e+00
0.000000000000000e+00
0.000000000000000e+00
0.000000000000000e+00
0.000000000000000e+00
        </DataArray>
      </CellData>

    </Piece>
  </UnstructuredGrid>
</VTKFile>
