<?xml version="1.0" ?> 
<!-- 
# vtk DataFile Version 3.0
-->
<VTKFile type="UnstructuredGrid" version="0.1" compressor="vtkZLibDataCompressor" byte_order="LittleEndian">
  <UnstructuredGrid>
    <FieldData>
      <DataArray type="Float64" Name="TIME" NumberOfTuples="1" format="ascii">
0.000000000000000e+00 
      </DataArray>
    </FieldData>

    <Piece NumberOfPoints="306" NumberOfCells="51" >
      <Points>
        <DataArray type="Float64" NumberOfComponents="3" format="ascii">
-4.736081566420000e-01 -9.985422671220000e-02 -1.500534036300000e-01
-4.593891127730000e-01 -7.344708602135998e-02 -1.493593488852000e-01
-4.451700689040000e-01 -4.703994533051999e-02 -1.486652941404000e-01
-4.309510250350000e-01 -2.063280463968000e-02 -1.479712393956000e-01
-4.167319811660000e-01 5.774336051160001e-03 -1.472771846508000e-01
-4.025129372970000e-01 3.218147674200000e-02 -1.465831299060000e-01
-1.192739760820000e-01 -2.227087965790000e-01 3.570452405570000e-01
-1.208993858936000e-01 -1.983112676112000e-01 3.744268004182000e-01
-1.225247957052000e-01 -1.739137386434000e-01 3.918083602794000e-01
-1.241502055168000e-01 -1.495162096756000e-01 4.091899201405999e-01
-1.257756153284000e-01 -1.251186807078000e-01 4.265714800018000e-01
-1.274010251400000e-01 -1.007211517400000e-01 4.439530398630000e-01
2.899704639190000e-01 -4.247639057630000e-01 -3.708934390960000e-02
3.032674793746000e-01 -4.189958327175999e-01 -1.082304014764000e-02
3.165644948302000e-01 -4.132277596721999e-01 1.544326361432000e-02
3.298615102858000e-01 -4.074596866267999e-01 4.170956737628000e-02
3.431585257414000e-01 -4.016916135814000e-01 6.797587113824001e-02
3.564555411970000e-01 -3.959235405360000e-01 9.424217490020000e-02
3.509267972300000e-01 -3.986887866810000e-01 -2.559943776500000e-01
3.477151390874000e-01 -3.776766128319999e-01 -2.348242618706000e-01
3.445034809448000e-01 -3.566644389830000e-01 -2.136541460912000e-01
3.412918228022000e-01 -3.356522651340000e-01 -1.924840303118000e-01
3.380801646596000e-01 -3.146400912850000e-01 -1.713139145324000e-01
3.348685065170000e-01 -2.936279174360000e-01 -1.501437987530000e-01
3.296543031250000e-01 -2.932896947250000e-01 -4.137624443020000e-01
3.179554002540000e-01 -2.855296215672000e-01 -3.872498635864000e-01
3.062564973830000e-01 -2.777695484094000e-01 -3.607372828707999e-01
2.945575945120000e-01 -2.700094752516000e-01 -3.342247021552000e-01
2.828586916410000e-01 -2.622494020938000e-01 -3.077121214396000e-01
2.711597887700000e-01 -2.544893289360000e-01 -2.811995407240000e-01
-3.885215797610000e-01 -1.817232921760000e-01 -2.085173393810000e-01
-3.756994505422000e-01 -1.584917930764200e-01 -2.225134264016000e-01
-3.628773213233999e-01 -1.352602939768400e-01 -2.365095134222000e-01
-3.500551921046000e-01 -1.120287948772600e-01 -2.505056004428000e-01
-3.372330628858000e-01 -8.879729577767999e-02 -2.645016874634000e-01
-3.244109336670000e-01 -6.556579667810000e-02 -2.784977744840000e-01
-4.507522597230000e-01 -2.853570656450000e-01 -2.723773245530000e-01
-4.352460998601999e-01 -2.612954236342000e-01 -2.633997753304000e-01
-4.197399399974000e-01 -2.372337816234000e-01 -2.544222261078000e-01
-4.042337801346000e-01 -2.131721396126000e-01 -2.454446768852000e-01
-3.887276202718000e-01 -1.891104976018000e-01 -2.364671276626000e-01
-3.732214604090000e-01 -1.650488555910000e-01 -2.274895784400000e-01
-4.019692764390000e-01 -9.440884807350000e-02 -3.841542974800000e-01
-4.040138690496000e-01 -6.450087580119999e-02 -3.853087824804000e-01
-4.060584616602000e-01 -3.459290352889999e-02 -3.864632674808000e-01
-4.081030542708000e-01 -4.684931256600008e-03 -3.876177524812000e-01
-4.101476468814000e-01 2.522304101570001e-02 -3.887722374816000e-01
-4.121922394920000e-01 5.513101328800000e-02 -3.899267224820000e-01
-4.662702105690000e-01 -3.756551732530000e-01 4.603213500190000e-02
-4.532472161300000e-01 -3.489423125556000e-01 4.193034402648000e-02
-4.402242216910000e-01 -3.222294518582000e-01 3.782855305106000e-02
-4.272012272520000e-01 -2.955165911608000e-01 3.372676207563999e-02
-4.141782328130000e-01 -2.688037304634000e-01 2.962497110022000e-02
-4.011552383740000e-01 -2.420908697660000e-01 2.552318012480000e-02
-3.579758560490000e-01 -3.581423033270000e-01 1.781054984650000e-01
-3.522594458038000e-01 -3.303232622068000e-01 1.877710871726000e-01
-3.465430355586000e-01 -3.025042210866000e-01 1.974366758802000e-01
-3.408266253134000e-01 -2.746851799664000e-01 2.071022645878000e-01
-3.351102150682000e-01 -2.468661388462000e-01 2.167678532954000e-01
-3.293938048230000e-01 -2.190470977260000e-01 2.264334420030000e-01
-4.355573766750000e-01 -2.466953916310000e-01 -2.018691584880000e-02
-4.291866975795999e-01 -2.255396739120000e-01 -4.048100502904001e-02
-4.228160184842000e-01 -2.043839561930000e-01 -6.077509420928000e-02
-4.164453393888000e-01 -1.832282384740000e-01 -8.106918338951999e-02
-4.100746602934000e-01 -1.620725207550000e-01 -1.013632725697600e-01
-4.037039811980000e-01 -1.409168030360000e-01 -1.216573617500000e-01
-4.624599208300000e-01 -1.103295781450000e-01 -3.460989252680000e-01
-4.667281359404000e-01 -8.078217813467999e-02 -3.431436769882000e-01
-4.709963510508000e-01 -5.123477812435998e-02 -3.401884287084000e-01
-4.752645661612000e-01 -2.168737811404001e-02 -3.372331804286000e-01
-4.795327812716000e-01 7.860021896280003e-03 -3.342779321488000e-01
-4.838009963820000e-01 3.740742190660000e-02 -3.313226838690000e-01
-2.559258534960000e-01 -1.337802827370000e-01 1.921680281570000e-01
-2.435484049756000e-01 -1.213243274628000e-01 1.678442137700200e-01
-2.311709564552000e-01 -1.088683721886000e-01 1.435203993830400e-01
-2.187935079348000e-01 -9.641241691439999e-02 1.191965849960600e-01
-2.064160594144000e-01 -8.395646164019999e-02 9.487277060907999e-02
-1.940386108940000e-01 -7.150050636600000e-02 7.054895622210000e-02
3.196087108150000e-01 -2.372864104110000e-01 3.151644484030000e-01
3.076519776184000e-01 -2.224885206036000e-01 2.919683498406000e-01
2.956952444218000e-01 -2.076906307962000e-01 2.687722512782000e-01
2.837385112251999e-01 -1.928927409888000e-01 2.455761527158000e-01
2.717817780286000e-01 -1.780948511814000e-01 2.223800541534000e-01
2.598250448320000e-01 -1.632969613740000e-01 1.991839555910000e-01
2.389625092750000e-01 -3.219444425720000e-01 1.030207452030000e-01
2.244825354720000e-01 -3.090230200634000e-01 1.258979652922000e-01
2.100025616690000e-01 -2.961015975548000e-01 1.487751853814000e-01
1.955225878660000e-01 -2.831801750462000e-01 1.716524054706000e-01
1.810426140630000e-01 -2.702587525376000e-01 1.945296255598000e-01
1.665626402600000e-01 -2.573373300290000e-01 2.174068456490000e-01
-3.953257353230000e-01 -1.409969985920000e-01 3.724362760690000e-01
-3.960639817806000e-01 -1.405679907004000e-01 3.424484294576000e-01
-3.968022282382000e-01 -1.401389828088000e-01 3.124605828462000e-01
-3.975404746958000e-01 -1.397099749172000e-01 2.824727362348000e-01
-3.982787211534000e-01 -1.392809670256000e-01 2.524848896234000e-01
-3.990169676110000e-01 -1.388519591340000e-01 2.224970430120000e-01
-2.676496522150000e-01 -2.639811350360000e-01 3.018315288130000e-01
-2.603461203544000e-01 -2.432042134916000e-01 2.814605211430000e-01
-2.530425884938000e-01 -2.224272919472000e-01 2.610895134730000e-01
-2.457390566332000e-01 -2.016503704028000e-01 2.407185058030000e-01
-2.384355247726000e-01 -1.808734488584000e-01 2.203474981330000e-01
-2.311319929120000e-01 -1.600965273140000e-01 1.999764904630000e-01
4.487338699990000e-01 -3.853833558320000e-01 2.711353139210000e-01
4.423698236376000e-01 -3.572108353504000e-01 2.792475271598000e-01
4.360057772762000e-01 -3.290383148688000e-01 2.873597403986000e-01
4.296417309148000e-01 -3.008657943872000e-01 2.954719536374000e-01
4.232776845534000e-01 -2.726932739056000e-01 3.035841668762000e-01
4.169136381920000e-01 -2.445207534240000e-01 3.116963801150000e-01
4.594392672240000e-01 -3.568679546930000e-01 -3.961921743990000e-01
4.615763060250000e-01 -3.483382467871999e-01 -3.675098253283999e-01
4.637133448260000e-01 -3.398085388813999e-01 -3.388274762578000e-01
4.658503836269999e-01 -3.312788309755999e-01 -3.101451271872000e-01
4.679874224280000e-01 -3.227491230698000e-01 -2.814627781166000e-01
4.701244612290000e-01 -3.142194151640000e-01 -2.527804290460000e-01
8.176790828090000e-02 -2.108728030690000e-01 2.879239729020000e-01
8.524220243893998e-02 -1.999833669126000e-01 2.601868234396000e-01
8.871649659698000e-02 -1.890939307562000e-01 2.324496739772000e-01
9.219079075502000e-02 -1.782044945998000e-01 2.047125245148000e-01
9.566508491306000e-02 -1.673150584434000e-01 1.769753750524000e-01
9.913937907110000e-02 -1.564256222870000e-01 1.492382255900000e-01
-4.580728154360000e-01 -3.046261051850000e-01 1.136786313500000e-01
-4.487201934075999e-01 -2.858212198057999e-01 9.225656919261199e-02
-4.393675713792000e-01 -2.670163344265999e-01 7.083450703522400e-02
-4.300149493507999e-01 -2.482114490474000e-01 4.941244487783600e-02
-4.206623273224001e-01 -2.294065636682000e-01 2.799038272044800e-02
-4.113097052940000e-01 -2.106016782890000e-01 6.568320563060000e-03
-4.427960838360000e-01 -1.405190142320000e-01 -4.056958950100000e-01
-4.364926047880000e-01 -1.324717012800000e-01 -3.774911630285999e-01
-4.301891257400000e-01 -1.244243883280000e-01 -3.492864310471999e-01
-4.238856466919999e-01 -1.163770753760000e-01 -3.210816990658000e-01
-4.175821676440000e-01 -1.083297624240000e-01 -2.928769670844000e-01
-4.112786885960000e-01 -1.002824494720000e-01 -2.646722351030000e-01
2.260467063380000e-02 -3.226163429140000e-01 4.690431262930000e-01
6.744896386639994e-03 -2.971513823262000e-01 4.689853068476000e-01
-9.114877860519999e-03 -2.716864217384000e-01 4.689274874021999e-01
-2.497465210767999e-02 -2.462214611506000e-01 4.688696679568000e-01
-4.083442635484000e-02 -2.207565005628000e-01 4.688118485114000e-01
-5.669420060200000e-02 -1.952915399750000e-01 4.687540290660000e-01
-1.346255440290000e-01 -3.639496458550000e-01 2.643337823240000e-02
-1.276651829302000e-01 -3.373923830335999e-01 1.433936463832000e-02
-1.207048218314000e-01 -3.108351202122000e-01 2.245351044239996e-03
-1.137444607326000e-01 -2.842778573908000e-01 -9.848662549840001e-03
-1.067840996338000e-01 -2.577205945694000e-01 -2.194267614392000e-02
-9.982373853500000e-02 -2.311633317480000e-01 -3.403668973800000e-02
-5.134864590080000e-02 -1.903818583590000e-01 1.142600632870000e-01
-4.065246262182599e-02 -1.792631527318000e-01 8.853136241737999e-02
-2.995627934285200e-02 -1.681444471046000e-01 6.280266154775999e-02
-1.926009606387800e-02 -1.570257414774000e-01 3.707396067814001e-02
-8.563912784903999e-03 -1.459070358502000e-01 1.134525980852000e-02
2.132270494070000e-03 -1.347883302230000e-01 -1.438344106110000e-02
-3.987452357810000e-01 -1.289972978930000e-01 -1.731812150880000e-02
-3.971876023133999e-01 -1.011673337848400e-01 -2.841167259560000e-02
-3.956299688458000e-01 -7.333736967667999e-02 -3.950522368240000e-02
-3.940723353782000e-01 -4.550740556852000e-02 -5.059877476919999e-02
-3.925147019106000e-01 -1.767744146036000e-02 -6.169232585600000e-02
-3.909570684430000e-01 1.015252264780000e-02 -7.278587694280000e-02
-4.194733669420000e-01 -1.176509596720000e-01 3.504545266120000e-01
-4.165403110988000e-01 -1.061253295960400e-01 3.229126124670000e-01
-4.136072552556000e-01 -9.459969952007999e-02 2.953706983220000e-01
-4.106741994124000e-01 -8.307406944411999e-02 2.678287841770000e-01
-4.077411435691999e-01 -7.154843936815998e-02 2.402868700320000e-01
-4.048080877260000e-01 -6.002280929220000e-02 2.127449558870000e-01
-7.075274063009999e-02 -4.023730837530000e-01 -4.085188539230000e-01
-7.151848671243999e-02 -3.789816322994000e-01 -3.897504327898000e-01
-7.228423279478000e-02 -3.555901808458000e-01 -3.709820116566000e-01
-7.304997887711999e-02 -3.321987293922000e-01 -3.522135905234000e-01
-7.381572495946001e-02 -3.088072779386000e-01 -3.334451693902000e-01
-7.458147104180000e-02 -2.854158264850000e-01 -3.146767482570000e-01
-6.008260757300000e-02 -3.635531296580000e-01 -3.216488905840000e-01
-4.623679104997799e-02 -3.431668075072000e-01 -3.045406693445999e-01
-3.239097452695600e-02 -3.227804853564000e-01 -2.874324481052000e-01
-1.854515800393400e-02 -3.023941632056000e-01 -2.703242268658000e-01
-4.699341480911999e-03 -2.820078410547999e-01 -2.532160056264000e-01
9.146475042110001e-03 -2.616215189040000e-01 -2.361077843870000e-01
1.746405392780000e-01 -2.236857481590000e-01 1.543264587340000e-01
1.894089383586000e-01 -2.169133382436000e-01 1.795460711922000e-01
2.041773374392000e-01 -2.101409283282000e-01 2.047656836504000e-01
2.189457365198000e-01 -2.033685184128000e-01 2.299852961086000e-01
2.337141356004000e-01 -1.965961084974000e-01 2.552049085667999e-01
2.484825346810000e-01 -1.898236985820000e-01 2.804245210250000e-01
3.405405565560000e-01 -3.946044112590000e-01 -2.681562069760000e-01
3.362490762148000e-01 -3.650446687216000e-01 -2.653624966110000e-01
3.319575958736000e-01 -3.354849261841999e-01 -2.625687862460000e-01
3.276661155324000e-01 -3.059251836468000e-01 -2.597750758810000e-01
3.233746351912000e-01 -2.763654411094000e-01 -2.569813655160000e-01
3.190831548500000e-01 -2.468056985720000e-01 -2.541876551510000e-01
2.772039039860000e-01 -2.972237841030000e-01 -2.697128910800000e-01
2.893613927245999e-01 -2.842650698998000e-01 -2.938845106734000e-01
3.015188814632000e-01 -2.713063556966000e-01 -3.180561302668000e-01
3.136763702017999e-01 -2.583476414933999e-01 -3.422277498602000e-01
3.258338589404000e-01 -2.453889272902000e-01 -3.663993694536000e-01
3.379913476790000e-01 -2.324302130870000e-01 -3.905709890470000e-01
2.915992968450000e-01 -4.578003795480000e-01 -4.943512249020000e-01
3.106552388920000e-01 -4.555832403357999e-01 -4.712870672884000e-01
3.297111809390000e-01 -4.533661011236000e-01 -4.482229096748000e-01
3.487671229860000e-01 -4.511489619114000e-01 -4.251587520612000e-01
3.678230650330001e-01 -4.489318226992000e-01 -4.020945944476000e-01
3.868790070800000e-01 -4.467146834870000e-01 -3.790304368340000e-01
-4.190061487550000e-01 -2.066463955720000e-01 -1.094162172270000e-01
-4.241516571805999e-01 -1.972678592664000e-01 -8.138825262361997e-02
-4.292971656062000e-01 -1.878893229608000e-01 -5.336028802023999e-02
-4.344426740318000e-01 -1.785107866552000e-01 -2.533232341686000e-02
-4.395881824574000e-01 -1.691322503496000e-01 2.695641186520003e-03
-4.447336908830000e-01 -1.597537140440000e-01 3.072360578990000e-02
-2.104568705290000e-01 -3.309844117240000e-01 -2.384696402480000e-02
-2.049006478942000e-01 -3.139163351027999e-01 1.906970611800121e-04
-1.993444252594000e-01 -2.968482584816000e-01 2.422835814716000e-02
-1.937882026246000e-01 -2.797801818604000e-01 4.826601923314000e-02
-1.882319799898000e-01 -2.627121052392000e-01 7.230368031912000e-02
-1.826757573550000e-01 -2.456440286180000e-01 9.634134140510001e-02
5.538641975170000e-02 -4.629541406110000e-01 -1.992829094340000e-02
5.700314139826000e-02 -4.529098462702000e-01 -4.815059351272001e-02
5.861986304482000e-02 -4.428655519294000e-01 -7.637289608204000e-02
6.023658469138000e-02 -4.328212575886000e-01 -1.045951986513600e-01
6.185330633794000e-02 -4.227769632478000e-01 -1.328175012206800e-01
6.347002798449999e-02 -4.127326689070000e-01 -1.610398037900000e-01
2.461895483040000e-02 -3.905818162200000e-01 1.005297617390000e-01
4.941475918532000e-02 -3.758178655006000e-01 1.087269469604000e-01
7.421056354024001e-02 -3.610539147812000e-01 1.169241321818000e-01
9.900636789515997e-02 -3.462899640618000e-01 1.251213174032000e-01
1.238021722500800e-01 -3.315260133424000e-01 1.333185026246000e-01
1.485979766050000e-01 -3.167620626230000e-01 1.415156878460000e-01
-1.349746647910000e-01 -3.742087815860000e-01 -7.578690134430000e-02
-1.260270816387000e-01 -3.725173333898000e-01 -1.043715083686400e-01
-1.170794984864000e-01 -3.708258851936000e-01 -1.329561153929800e-01
-1.081319153341000e-01 -3.691344369974000e-01 -1.615407224173200e-01
-9.918433218180001e-02 -3.674429888012000e-01 -1.901253294416600e-01
-9.023674902950000e-02 -3.657515406050000e-01 -2.187099364660000e-01
-2.380771763560000e-01 -4.930854197360000e-01 -1.057084082870000e-01
-2.259411366252000e-01 -4.658032340914000e-01 -1.086064914658000e-01
-2.138050968944000e-01 -4.385210484468000e-01 -1.115045746446000e-01
-2.016690571636000e-01 -4.112388628022000e-01 -1.144026578234000e-01
-1.895330174328000e-01 -3.839566771576000e-01 -1.173007410022000e-01
-1.773969777020000e-01 -3.566744915130000e-01 -1.201988241810000e-01
-3.753033017540000e-01 -2.178598163100000e-01 -4.932542107420000e-02
-3.814796912065999e-01 -2.094867384854000e-01 -2.118747905505999e-02
-3.876560806592000e-01 -2.011136606608000e-01 6.950462964079999e-03
-3.938324701118000e-01 -1.927405828362000e-01 3.508840498322000e-02
-4.000088595644000e-01 -1.843675050116000e-01 6.322634700235999e-02
-4.061852490170000e-01 -1.759944271870000e-01 9.136428902150000e-02
-2.076987964120000e-01 -3.995724654640000e-01 -4.145431903620000e-02
-2.004930921676000e-01 -3.944029919860000e-01 -7.011359973736001e-02
-1.932873879232000e-01 -3.892335185080000e-01 -9.877288043851999e-02
-1.860816836788000e-01 -3.840640450300000e-01 -1.274321611396800e-01
-1.788759794344000e-01 -3.788945715520000e-01 -1.560914418408400e-01
-1.716702751900000e-01 -3.737250980740000e-01 -1.847507225420000e-01
-2.591060208510000e-01 -1.920221756350000e-01 -3.228495509090000e-04
-2.436763605372000e-01 -1.687199407496400e-01 1.058271929931280e-02
-2.282467002234000e-01 -1.454177058642800e-01 2.148828814953460e-02
-2.128170399096000e-01 -1.221154709789200e-01 3.239385699975639e-02
-1.973873795958000e-01 -9.881323609355999e-02 4.329942584997820e-02
-1.819577192820000e-01 -7.551100120819999e-02 5.420499470020000e-02
1.465200791030000e-01 -3.125571226250000e-01 5.791372885680000e-02
1.446946616996000e-01 -3.010205945544000e-01 3.028084316997999e-02
1.428692442962000e-01 -2.894840664838000e-01 2.647957483159998e-03
1.410438268928000e-01 -2.779475384132000e-01 -2.498492820366000e-02
1.392184094894000e-01 -2.664110103426000e-01 -5.261781389047999e-02
1.373929920860000e-01 -2.548744822720000e-01 -8.025069957729999e-02
1.955046204610000e-01 -3.038356940460000e-01 -3.499376766090000e-02
2.007475790250000e-01 -2.757445366454000e-01 -2.586150280544000e-02
2.059905375890000e-01 -2.476533792448000e-01 -1.672923794998000e-02
2.112334961530000e-01 -2.195622218442000e-01 -7.596973094520003e-03
2.164764547170000e-01 -1.914710644436000e-01 1.535291760940001e-03
2.217194132810000e-01 -1.633799070430000e-01 1.066755661640000e-02
-2.411659248680000e-01 -2.416325370260000e-01 -1.878265957070000e-02
-2.400739724986000e-01 -2.132562683323400e-01 -2.845711123694000e-02
-2.389820201292000e-01 -1.848799996386800e-01 -3.813156290318000e-02
-2.378900677598000e-01 -1.565037309450200e-01 -4.780601456942000e-02
-2.367981153904000e-01 -1.281274622513600e-01 -5.748046623565999e-02
-2.357061630210000e-01 -9.975119355770000e-02 -6.715491790189999e-02
-3.637255448350000e-01 -2.207244291270000e-01 1.166460355630000e-01
-3.705381349255999e-01 -1.915517636576200e-01 1.150509789280000e-01
-3.773507250161999e-01 -1.623790981882400e-01 1.134559222930000e-01
-3.841633151068000e-01 -1.332064327188600e-01 1.118608656580000e-01
-3.909759051974000e-01 -1.040337672494800e-01 1.102658090230000e-01
-3.977884952880000e-01 -7.486110178010000e-02 1.086707523880000e-01
-2.270471283300000e-01 -2.971441071730000e-01 -8.120457209350000e-02
-2.009754025743600e-01 -2.916101488536000e-01 -9.497557138340000e-02
-1.749036768187200e-01 -2.860761905342000e-01 -1.087465706733000e-01
-1.488319510630800e-01 -2.805422322148000e-01 -1.225175699632000e-01
-1.227602253074400e-01 -2.750082738953999e-01 -1.362885692531000e-01
-9.668849955180001e-02 -2.694743155760000e-01 -1.500595685430000e-01
-4.532747622220000e-01 -4.638339319100000e-01 -1.600605366320000e-01
-4.595547309816000e-01 -4.475062746017999e-01 -1.356890451058800e-01
-4.658346997412000e-01 -4.311786172936000e-01 -1.113175535797600e-01
-4.721146685008000e-01 -4.148509599854000e-01 -8.694606205364000e-02
-4.783946372604000e-01 -3.985233026772000e-01 -6.257457052752000e-02
-4.846746060200000e-01 -3.821956453690000e-01 -3.820307900140000e-02
2.715813681150000e-01 -4.204632629780000e-01 1.208234283740000e-01
2.898974287586000e-01 -3.979005382836000e-01 1.133772631287400e-01
3.082134894021999e-01 -3.753378135892000e-01 1.059310978834800e-01
3.265295500457999e-01 -3.527750888948000e-01 9.848493263822000e-02
3.448456106894000e-01 -3.302123642004000e-01 9.103876739295999e-02
3.631616713330000e-01 -3.076496395060000e-01 8.359260214769999e-02
-2.538787117350000e-01 -4.983889032510000e-01 -2.329996217000000e-01
-2.308350350050000e-01 -4.813810180120000e-01 -2.240709710482000e-01
-2.077913582750000e-01 -4.643731327730000e-01 -2.151423203964000e-01
-1.847476815450000e-01 -4.473652475339999e-01 -2.062136697446000e-01
-1.617040048150000e-01 -4.303573622950000e-01 -1.972850190928000e-01
-1.386603280850000e-01 -4.133494770560000e-01 -1.883563684410000e-01
-3.982948120090000e-01 -2.768563499130000e-01 2.986259979580000e-01
-3.776411319526000e-01 -2.622036730774000e-01 2.825410807470000e-01
-3.569874518962000e-01 -2.475509962418000e-01 2.664561635360000e-01
-3.363337718398000e-01 -2.328983194062000e-01 2.503712463250000e-01
-3.156800917834000e-01 -2.182456425706000e-01 2.342863291140000e-01
-2.950264117270000e-01 -2.035929657350000e-01 2.182014119030000e-01
        </DataArray>
      </Points>

      <Cells>
        <DataArray type="Int32" Name="connectivity" format="ascii">
0 1 2 3 4 5 6 7 8 9 10 11 12 13 14 15 16 17 18 19 20 21 22 23 24 25 26 27 28 29 30 31 32 33 34 35 36 37 38 39 40 41 42 43 44 45 46 47 48 49 50 51 52 53 54 55 56 57 58 59 60 61 62 63 64 65 66 67 68 69 70 71 72 73 74 75 76 77 78 79 80 81 82 83 84 85 86 87 88 89 90 91 92 93 94 95 96 97 98 99 100 101 102 103 104 105 106 107 108 109 110 111 112 113 114 115 116 117 118 119 120 121 122 123 124 125 126 127 128 129 130 131 132 133 134 135 136 137 138 139 140 141 142 143 144 145 146 147 148 149 150 151 152 153 154 155 156 157 158 159 160 161 162 163 164 165 166 167 168 169 170 171 172 173 174 175 176 177 178 179 180 181 182 183 184 185 186 187 188 189 190 191 192 193 194 195 196 197 198 199 200 201 202 203 204 205 206 207 208 209 210 211 212 213 214 215 216 217 218 219 220 221 222 223 224 225 226 227 228 229 230 231 232 233 234 235 236 237 238 239 240 241 242 243 244 245 246 247 248 249 250 251 252 253 254 255 256 257 258 259 260 261 262 263 264 265 266 267 268 269 270 271 272 273 274 275 276 277 278 279 280 281 282 283 284 285 286 287 288 289 290 291 292 293 294 295 296 297 298 299 300 301 302 303 304 305 
        </DataArray>
        <DataArray type="Int32" Name="offsets" format="ascii">
6 12 18 24 30 36 42 48 54 60 66 72 78 84 90 96 102 108 114 120 126 132 138 144 150 156 162 168 174 180 186 192 198 204 210 216 222 228 234 240 246 252 258 264 270 276 282 288 294 300 306 
        </DataArray>
        <DataArray type="UInt8" Name="types" format="ascii">
4 4 4 4 4 4 4 4 4 4 4 4 4 4 4 4 4 4 4 4 4 4 4 4 4 4 4 4 4 4 4 4 4 4 4 4 4 4 4 4 4 4 4 4 4 4 4 4 4 4 4 
        </DataArray>
      </Cells>

  <CellData>
        <DataArray type="Float64" Name="cross_section_radius" format="ascii">
5.000000000000000e-03
5.000000000000000e-03
5.000000000000000e-03
5.000000000000000e-03
5.000000000000000e-03
5.000000000000000e-03
5.000000000000000e-03
5.000000000000000e-03
5.000000000000000e-03
5.000000000000000e-03
5.000000000000000e-03
5.000000000000000e-03
5.000000000000000e-03
5.000000000000000e-03
5.000000000000000e-03
5.000000000000000e-03
5.000000000000000e-03
5.000000000000000e-03
5.000000000000000e-03
5.000000000000000e-03
5.000000000000000e-03
5.000000000000000e-03
5.000000000000000e-03
5.000000000000000e-03
5.000000000000000e-03
5.000000000000000e-03
5.000000000000000e-03
5.000000000000000e-03
5.000000000000000e-03
5.000000000000000e-03
5.000000000000000e-03
5.000000000000000e-03
5.000000000000000e-03
5.000000000000000e-03
5.000000000000000e-03
5.000000000000000e-03
5.000000000000000e-03
5.000000000000000e-03
5.000000000000000e-03
5.000000000000000e-03
5.000000000000000e-03
5.000000000000000e-03
5.000000000000000e-03
5.000000000000000e-03
5.000000000000000e-03
5.000000000000000e-03
5.000000000000000e-03
5.000000000000000e-03
5.000000000000000e-03
5.000000000000000e-03
5.000000000000000e-03
        </DataArray>
        <DataArray type="Float64" Name="element_ghosting" NumberOfComponents="3" format="ascii">
0.000000000000000e+00 0.000000000000000e+00 1.000000000000000e+00
0.000000000000000e+00 1.000000000000000e+00 0.000000000000000e+00
0.000000000000000e+00 0.000000000000000e+00 0.000000000000000e+00
0.000000000000000e+00 0.000000000000000e+00 0.000000000000000e+00
0.000000000000000e+00 0.000000000000000e+00 0.000000000000000e+00
0.000000000000000e+00 0.000000000000000e+00 0.000000000000000e+00
0.000000000000000e+00 0.000000000000000e+00 0.000000000000000e+00
0.000000000000000e+00 0.000000000000000e+00 1.000000000000000e+00
0.000000000000000e+00 0.000000000000000e+00 0.000000000000000e+00
0.000000000000000e+00 0.000000000000000e+00 0.000000000000000e+00
0.000000000000000e+00 0.000000000000000e+00 0.000000000000000e+00
0.000000000000000e+00 0.000000000000000e+00 1.000000000000000e+00
0.000000000000000e+00 1.000000000000000e+00 0.000000000000000e+00
0.000000000000000e+00 1.000000000000000e+00 0.000000000000000e+00
0.000000000000000e+00 1.000000000000000e+00 0.000000000000000e+00
0.000000000000000e+00 1.000000000000000e+00 0.000000000000000e+00
0.000000000000000e+00 1.000000000000000e+00 0.000000000000000e+00
0.000000000000000e+00 1.000000000000000e+00 0.000000000000000e+00
0.000000000000000e+00 0.000000000000000e+00 0.000000000000000e+00
0.000000000000000e+00 1.000000000000000e+00 0.000000000000000e+00
0.000000000000000e+00 0.000000000000000e+00 0.000000000000000e+00
0.000000000000000e+00 0.000000000000000e+00 0.000000000000000e+00
0.000000000000000e+00 1.000000000000000e+00 0.000000000000000e+00
0.000000000000000e+00 0.000000000000000e+00 0.000000000000000e+00
0.000000000000000e+00 1.000000000000000e+00 0.000000000000000e+00
0.000000000000000e+00 1.000000000000000e+00 0.000000000000000e+00
0.000000000000000e+00 1.000000000000000e+00 0.000000000000000e+00
0.000000000000000e+00 0.000000000000000e+00 0.000000000000000e+00
0.000000000000000e+00 0.000000000000000e+00 0.000000000000000e+00
0.000000000000000e+00 1.000000000000000e+00 0.000000000000000e+00
0.000000000000000e+00 0.000000000000000e+00 0.000000000000000e+00
0.000000000000000e+00 0.000000000000000e+00 0.000000000000000e+00
0.000000000000000e+00 0.000000000000000e+00 0.000000000000000e+00
0.000000000000000e+00 0.000000000000000e+00 0.000000000000000e+00
0.000000000000000e+00 0.000000000000000e+00 0.000000000000000e+00
0.000000000000000e+00 0.000000000000000e+00 0.000000000000000e+00
0.000000000000000e+00 0.000000000000000e+00 0.000000000000000e+00
0.000000000000000e+00 0.000000000000000e+00 0.000000000000000e+00
0.000000000000000e+00 0.000000000000000e+00 0.000000000000000e+00
0.000000000000000e+00 0.000000000000000e+00 0.000000000000000e+00
0.000000000000000e+00 0.000000000000000e+00 0.000000000000000e+00
0.000000000000000e+00 0.000000000000000e+00 0.000000000000000e+00
0.000000000000000e+00 0.000000000000000e+00 0.000000000000000e+00
0.000000000000000e+00 0.000000000000000e+00 0.000000000000000e+00
0.000000000000000e+00 0.000000000000000e+00 0.000000000000000e+00
0.000000000000000e+00 1.000000000000000e+00 0.000000000000000e+00
0.000000000000000e+00 0.000000000000000e+00 0.000000000000000e+00
0.000000000000000e+00 0.000000000000000e+00 0.000000000000000e+00
0.000000000000000e+00 0.000000000000000e+00 0.000000000000000e+00
0.000000000000000e+00 0.000000000000000e+00 0.000000000000000e+00
0.000000000000000e+00 0.000000000000000e+00 0.000000000000000e+00
        </DataArray>
        <DataArray type="Float64" Name="element_owner" format="ascii">
0.000000000000000e+00
0.000000000000000e+00
0.000000000000000e+00
0.000000000000000e+00
0.000000000000000e+00
0.000000000000000e+00
0.000000000000000e+00
0.000000000000000e+00
0.000000000000000e+00
0.000000000000000e+00
0.000000000000000e+00
0.000000000000000e+00
0.000000000000000e+00
0.000000000000000e+00
0.000000000000000e+00
0.000000000000000e+00
0.000000000000000e+00
0.000000000000000e+00
0.000000000000000e+00
0.000000000000000e+00
0.000000000000000e+00
0.000000000000000e+00
0.000000000000000e+00
0.000000000000000e+00
0.000000000000000e+00
0.000000000000000e+00
0.000000000000000e+00
0.000000000000000e+00
0.000000000000000e+00
0.000000000000000e+00
0.000000000000000e+00
0.000000000000000e+00
0.000000000000000e+00
0.000000000000000e+00
0.000000000000000e+00
0.000000000000000e+00
0.000000000000000e+00
0.000000000000000e+00
0.000000000000000e+00
0.000000000000000e+00
0.000000000000000e+00
0.000000000000000e+00
0.000000000000000e+00
0.000000000000000e+00
0.000000000000000e+00
0.000000000000000e+00
0.000000000000000e+00
0.000000000000000e+00
0.000000000000000e+00
0.000000000000000e+00
0.000000000000000e+00
        </DataArray>
      </CellData>

    </Piece>
  </UnstructuredGrid>
</VTKFile>
