<?xml version="1.0" ?> 
<!-- 
# vtk DataFile Version 3.0
-->
<VTKFile type="UnstructuredGrid" version="0.1" compressor="vtkZLibDataCompressor" byte_order="LittleEndian">
  <UnstructuredGrid>
    <FieldData>
      <DataArray type="Float64" Name="TIME" NumberOfTuples="1" format="ascii">
9.999999999999999e-01 
      </DataArray>
    </FieldData>

    <Piece NumberOfPoints="2108" NumberOfCells="527" >
      <Points>
        <DataArray type="Float64" NumberOfComponents="3" format="ascii">
3.125000000000000e-02 0.000000000000000e+00 0.000000000000000e+00
3.125000000000001e-02 3.124999999999979e-02 0.000000000000000e+00
0.000000000000000e+00 3.125000000000000e-02 0.000000000000000e+00
0.000000000000000e+00 0.000000000000000e+00 0.000000000000000e+00
6.250000000000000e-02 0.000000000000000e+00 0.000000000000000e+00
6.250000000000006e-02 3.124999999999979e-02 0.000000000000000e+00
3.125000000000001e-02 3.124999999999979e-02 0.000000000000000e+00
3.125000000000000e-02 0.000000000000000e+00 0.000000000000000e+00
9.375000000000000e-02 0.000000000000000e+00 0.000000000000000e+00
9.375000000000001e-02 3.124999999999979e-02 0.000000000000000e+00
6.250000000000006e-02 3.124999999999979e-02 0.000000000000000e+00
6.250000000000000e-02 0.000000000000000e+00 0.000000000000000e+00
1.250000000000000e-01 0.000000000000000e+00 0.000000000000000e+00
1.250000000000000e-01 3.124999999999995e-02 0.000000000000000e+00
9.375000000000001e-02 3.124999999999979e-02 0.000000000000000e+00
9.375000000000000e-02 0.000000000000000e+00 0.000000000000000e+00
1.562500000000000e-01 0.000000000000000e+00 0.000000000000000e+00
1.562500000000001e-01 3.124999999999996e-02 0.000000000000000e+00
1.250000000000000e-01 3.124999999999995e-02 0.000000000000000e+00
1.250000000000000e-01 0.000000000000000e+00 0.000000000000000e+00
1.875000000000000e-01 0.000000000000000e+00 0.000000000000000e+00
1.875000000000000e-01 3.124999999999979e-02 0.000000000000000e+00
1.562500000000001e-01 3.124999999999996e-02 0.000000000000000e+00
1.562500000000000e-01 0.000000000000000e+00 0.000000000000000e+00
2.187500000000000e-01 0.000000000000000e+00 0.000000000000000e+00
2.187500000000000e-01 3.124999999999979e-02 0.000000000000000e+00
1.875000000000000e-01 3.124999999999979e-02 0.000000000000000e+00
1.875000000000000e-01 0.000000000000000e+00 0.000000000000000e+00
2.500000000000000e-01 0.000000000000000e+00 0.000000000000000e+00
2.500000000000000e-01 3.124999999999979e-02 0.000000000000000e+00
2.187500000000000e-01 3.124999999999979e-02 0.000000000000000e+00
2.187500000000000e-01 0.000000000000000e+00 0.000000000000000e+00
2.812500000000000e-01 0.000000000000000e+00 0.000000000000000e+00
2.812499999999999e-01 3.124999999999979e-02 0.000000000000000e+00
2.500000000000000e-01 3.124999999999979e-02 0.000000000000000e+00
2.500000000000000e-01 0.000000000000000e+00 0.000000000000000e+00
3.125000000000000e-01 0.000000000000000e+00 0.000000000000000e+00
3.124999999999999e-01 3.124999999999979e-02 0.000000000000000e+00
2.812499999999999e-01 3.124999999999979e-02 0.000000000000000e+00
2.812500000000000e-01 0.000000000000000e+00 0.000000000000000e+00
3.437500000000000e-01 0.000000000000000e+00 0.000000000000000e+00
3.437500000000000e-01 3.124999999999979e-02 0.000000000000000e+00
3.124999999999999e-01 3.124999999999979e-02 0.000000000000000e+00
3.125000000000000e-01 0.000000000000000e+00 0.000000000000000e+00
3.750000000000000e-01 0.000000000000000e+00 0.000000000000000e+00
3.750000000000000e-01 3.124999999999979e-02 0.000000000000000e+00
3.437500000000000e-01 3.124999999999979e-02 0.000000000000000e+00
3.437500000000000e-01 0.000000000000000e+00 0.000000000000000e+00
4.062500000000000e-01 0.000000000000000e+00 0.000000000000000e+00
4.062499999999998e-01 3.124999999999979e-02 0.000000000000000e+00
3.750000000000000e-01 3.124999999999979e-02 0.000000000000000e+00
3.750000000000000e-01 0.000000000000000e+00 0.000000000000000e+00
4.375000000000000e-01 0.000000000000000e+00 0.000000000000000e+00
4.374999999999999e-01 3.124999999999979e-02 0.000000000000000e+00
4.062499999999998e-01 3.124999999999979e-02 0.000000000000000e+00
4.062500000000000e-01 0.000000000000000e+00 0.000000000000000e+00
4.687500000000000e-01 0.000000000000000e+00 0.000000000000000e+00
4.687499999999999e-01 3.124999999999996e-02 0.000000000000000e+00
4.374999999999999e-01 3.124999999999979e-02 0.000000000000000e+00
4.375000000000000e-01 0.000000000000000e+00 0.000000000000000e+00
5.000000000000000e-01 0.000000000000000e+00 0.000000000000000e+00
4.999999999999998e-01 3.124999999999995e-02 0.000000000000000e+00
4.687499999999999e-01 3.124999999999996e-02 0.000000000000000e+00
4.687500000000000e-01 0.000000000000000e+00 0.000000000000000e+00
5.312500000000000e-01 0.000000000000000e+00 0.000000000000000e+00
5.312499999999999e-01 3.124999999999979e-02 0.000000000000000e+00
4.999999999999998e-01 3.124999999999995e-02 0.000000000000000e+00
5.000000000000000e-01 0.000000000000000e+00 0.000000000000000e+00
5.625000000000000e-01 0.000000000000000e+00 0.000000000000000e+00
5.624999999999998e-01 3.124999999999995e-02 0.000000000000000e+00
5.312499999999999e-01 3.124999999999979e-02 0.000000000000000e+00
5.312500000000000e-01 0.000000000000000e+00 0.000000000000000e+00
5.937500000000000e-01 0.000000000000000e+00 0.000000000000000e+00
5.937500000000000e-01 3.124999999999995e-02 0.000000000000000e+00
5.624999999999998e-01 3.124999999999995e-02 0.000000000000000e+00
5.625000000000000e-01 0.000000000000000e+00 0.000000000000000e+00
3.125000000000001e-02 3.124999999999979e-02 0.000000000000000e+00
3.125000000000001e-02 6.249999999999970e-02 0.000000000000000e+00
0.000000000000000e+00 6.250000000000000e-02 0.000000000000000e+00
0.000000000000000e+00 3.125000000000000e-02 0.000000000000000e+00
6.250000000000006e-02 3.124999999999979e-02 0.000000000000000e+00
6.250000000000006e-02 6.249999999999971e-02 0.000000000000000e+00
3.125000000000001e-02 6.249999999999970e-02 0.000000000000000e+00
3.125000000000001e-02 3.124999999999979e-02 0.000000000000000e+00
9.375000000000001e-02 3.124999999999979e-02 0.000000000000000e+00
9.375000000000001e-02 6.249999999999971e-02 0.000000000000000e+00
6.250000000000006e-02 6.249999999999971e-02 0.000000000000000e+00
6.250000000000006e-02 3.124999999999979e-02 0.000000000000000e+00
1.250000000000000e-01 3.124999999999995e-02 0.000000000000000e+00
1.250000000000001e-01 6.249999999999971e-02 0.000000000000000e+00
9.375000000000001e-02 6.249999999999971e-02 0.000000000000000e+00
9.375000000000001e-02 3.124999999999979e-02 0.000000000000000e+00
1.562500000000001e-01 3.124999999999996e-02 0.000000000000000e+00
1.562500000000001e-01 6.249999999999988e-02 0.000000000000000e+00
1.250000000000001e-01 6.249999999999971e-02 0.000000000000000e+00
1.250000000000000e-01 3.124999999999995e-02 0.000000000000000e+00
1.875000000000000e-01 3.124999999999979e-02 0.000000000000000e+00
1.875000000000000e-01 6.249999999999971e-02 0.000000000000000e+00
1.562500000000001e-01 6.249999999999988e-02 0.000000000000000e+00
1.562500000000001e-01 3.124999999999996e-02 0.000000000000000e+00
2.187500000000000e-01 3.124999999999979e-02 0.000000000000000e+00
2.187500000000001e-01 6.250000000000017e-02 0.000000000000000e+00
1.875000000000000e-01 6.249999999999971e-02 0.000000000000000e+00
1.875000000000000e-01 3.124999999999979e-02 0.000000000000000e+00
2.500000000000000e-01 3.124999999999979e-02 0.000000000000000e+00
2.500000000000000e-01 6.250000000000003e-02 0.000000000000000e+00
2.187500000000001e-01 6.250000000000017e-02 0.000000000000000e+00
2.187500000000000e-01 3.124999999999979e-02 0.000000000000000e+00
2.812499999999999e-01 3.124999999999979e-02 0.000000000000000e+00
2.812500000000001e-01 6.250000000000017e-02 0.000000000000000e+00
2.500000000000000e-01 6.250000000000003e-02 0.000000000000000e+00
2.500000000000000e-01 3.124999999999979e-02 0.000000000000000e+00
3.124999999999999e-01 3.124999999999979e-02 0.000000000000000e+00
3.124999999999999e-01 6.250000000000003e-02 0.000000000000000e+00
2.812500000000001e-01 6.250000000000017e-02 0.000000000000000e+00
2.812499999999999e-01 3.124999999999979e-02 0.000000000000000e+00
3.437500000000000e-01 3.124999999999979e-02 0.000000000000000e+00
3.437500000000002e-01 6.249999999999971e-02 0.000000000000000e+00
3.124999999999999e-01 6.250000000000003e-02 0.000000000000000e+00
3.124999999999999e-01 3.124999999999979e-02 0.000000000000000e+00
3.750000000000000e-01 3.124999999999979e-02 0.000000000000000e+00
3.750000000000000e-01 6.249999999999971e-02 0.000000000000000e+00
3.437500000000002e-01 6.249999999999971e-02 0.000000000000000e+00
3.437500000000000e-01 3.124999999999979e-02 0.000000000000000e+00
4.062499999999998e-01 3.124999999999979e-02 0.000000000000000e+00
4.062499999999999e-01 6.249999999999987e-02 0.000000000000000e+00
3.750000000000000e-01 6.249999999999971e-02 0.000000000000000e+00
3.750000000000000e-01 3.124999999999979e-02 0.000000000000000e+00
4.374999999999999e-01 3.124999999999979e-02 0.000000000000000e+00
4.374999999999999e-01 6.249999999999971e-02 0.000000000000000e+00
4.062499999999999e-01 6.249999999999987e-02 0.000000000000000e+00
4.062499999999998e-01 3.124999999999979e-02 0.000000000000000e+00
4.687499999999999e-01 3.124999999999996e-02 0.000000000000000e+00
4.687500000000000e-01 6.250000000000017e-02 0.000000000000000e+00
4.374999999999999e-01 6.249999999999971e-02 0.000000000000000e+00
4.374999999999999e-01 3.124999999999979e-02 0.000000000000000e+00
4.999999999999998e-01 3.124999999999995e-02 0.000000000000000e+00
5.000000000000000e-01 6.249999999999971e-02 0.000000000000000e+00
4.687500000000000e-01 6.250000000000017e-02 0.000000000000000e+00
4.687499999999999e-01 3.124999999999996e-02 0.000000000000000e+00
5.312499999999999e-01 3.124999999999979e-02 0.000000000000000e+00
5.312500000000000e-01 6.250000000000003e-02 0.000000000000000e+00
5.000000000000000e-01 6.249999999999971e-02 0.000000000000000e+00
4.999999999999998e-01 3.124999999999995e-02 0.000000000000000e+00
[...]
  <PointData>
        <DataArray type="Float64" Name="displacement" NumberOfComponents="3" format="ascii">
-5.035438715940695e-06 3.978088382475122e-05 0.000000000000000e+00
-6.625900597639841e-06 3.119203628884315e-05 0.000000000000000e+00
0.000000000000000e+00 0.000000000000000e+00 0.000000000000000e+00
0.000000000000000e+00 0.000000000000000e+00 0.000000000000000e+00
-7.532884119764953e-06 8.441625481183109e-05 0.000000000000000e+00
-8.374636044447862e-06 5.665722151283426e-05 0.000000000000000e+00
-6.625900597639841e-06 3.119203628884315e-05 0.000000000000000e+00
-5.035438715940695e-06 3.978088382475122e-05 0.000000000000000e+00
-9.924830517644300e-06 9.317089387717447e-05 0.000000000000000e+00
-6.986012759256206e-06 6.641021181545576e-05 0.000000000000000e+00
-8.374636044447862e-06 5.665722151283426e-05 0.000000000000000e+00
-7.532884119764953e-06 8.441625481183109e-05 0.000000000000000e+00
-1.304508703324772e-05 7.707038782962610e-05 0.000000000000000e+00
-7.088030674302559e-06 6.033076618931315e-05 0.000000000000000e+00
-6.986012759256206e-06 6.641021181545576e-05 0.000000000000000e+00
-9.924830517644300e-06 9.317089387717447e-05 0.000000000000000e+00
-1.668900299896327e-05 5.621478569501191e-05 0.000000000000000e+00
-9.429493312685022e-06 4.727509862963236e-05 0.000000000000000e+00
-7.088030674302559e-06 6.033076618931315e-05 0.000000000000000e+00
-1.304508703324772e-05 7.707038782962610e-05 0.000000000000000e+00
-2.037230623760266e-05 4.017378278859026e-05 0.000000000000000e+00
-1.262267787158532e-05 3.354363748670556e-05 0.000000000000000e+00
-9.429493312685022e-06 4.727509862963236e-05 0.000000000000000e+00
-1.668900299896327e-05 5.621478569501191e-05 0.000000000000000e+00
-2.378534189654494e-05 2.750105597683617e-05 0.000000000000000e+00
-1.537003933278474e-05 2.013817519160686e-05 0.000000000000000e+00
-1.262267787158532e-05 3.354363748670556e-05 0.000000000000000e+00
-2.037230623760266e-05 4.017378278859026e-05 0.000000000000000e+00
-2.686690306117137e-05 1.309679252121590e-05 0.000000000000000e+00
-1.732070331413388e-05 5.273367449650297e-06 0.000000000000000e+00
-1.537003933278474e-05 2.013817519160686e-05 0.000000000000000e+00
-2.378534189654494e-05 2.750105597683617e-05 0.000000000000000e+00
-2.967276833752576e-05 -5.909041433379560e-06 0.000000000000000e+00
-1.877840632181074e-05 -1.256236298535238e-05 0.000000000000000e+00
-1.732070331413388e-05 5.273367449650297e-06 0.000000000000000e+00
-2.686690306117137e-05 1.309679252121590e-05 0.000000000000000e+00
-3.223405434230084e-05 -2.907964503573139e-05 0.000000000000000e+00
-2.009691544360217e-05 -3.345548790107423e-05 0.000000000000000e+00
-1.877840632181074e-05 -1.256236298535238e-05 0.000000000000000e+00
-2.967276833752576e-05 -5.909041433379560e-06 0.000000000000000e+00
-3.451269485860351e-05 -5.464414947337186e-05 0.000000000000000e+00
-2.136912230523973e-05 -5.660752170122658e-05 0.000000000000000e+00
-2.009691544360217e-05 -3.345548790107423e-05 0.000000000000000e+00
-3.223405434230084e-05 -2.907964503573139e-05 0.000000000000000e+00
-3.643936082953754e-05 -8.140146224392441e-05 0.000000000000000e+00
-2.248744418630425e-05 -8.123119553343761e-05 0.000000000000000e+00
-2.136912230523973e-05 -5.660752170122658e-05 0.000000000000000e+00
-3.451269485860351e-05 -5.464414947337186e-05 0.000000000000000e+00
-3.796109188686275e-05 -1.090932341710941e-04 0.000000000000000e+00
-2.332971128135745e-05 -1.069134919348237e-04 0.000000000000000e+00
-2.248744418630425e-05 -8.123119553343761e-05 0.000000000000000e+00
-3.643936082953754e-05 -8.140146224392441e-05 0.000000000000000e+00
-3.905450277221487e-05 -1.377798174727235e-04 0.000000000000000e+00
-2.385356965740691e-05 -1.334571466398927e-04 0.000000000000000e+00
-2.332971128135745e-05 -1.069134919348237e-04 0.000000000000000e+00
-3.796109188686275e-05 -1.090932341710941e-04 0.000000000000000e+00
-3.971200307567424e-05 -1.672937700697079e-04 0.000000000000000e+00
-2.407159295786428e-05 -1.606302827638548e-04 0.000000000000000e+00
-2.385356965740691e-05 -1.334571466398927e-04 0.000000000000000e+00
-3.905450277221487e-05 -1.377798174727235e-04 0.000000000000000e+00
-3.992693126117545e-05 -1.972066113165491e-04 0.000000000000000e+00
-2.399300851392425e-05 -1.880982619177215e-04 0.000000000000000e+00
-2.407159295786428e-05 -1.606302827638548e-04 0.000000000000000e+00
-3.971200307567424e-05 -1.672937700697079e-04 0.000000000000000e+00
-3.969043574897191e-05 -2.270913028645081e-04 0.000000000000000e+00
-2.360277408457112e-05 -2.155078333045297e-04 0.000000000000000e+00
-2.399300851392425e-05 -1.880982619177215e-04 0.000000000000000e+00
-3.992693126117545e-05 -1.972066113165491e-04 0.000000000000000e+00
-3.899854130765732e-05 -2.567153007880075e-04 0.000000000000000e+00
-2.288837375125864e-05 -2.425549856838131e-04 0.000000000000000e+00
-2.360277408457112e-05 -2.155078333045297e-04 0.000000000000000e+00
-3.969043574897191e-05 -2.270913028645081e-04 0.000000000000000e+00
-3.786333616663204e-05 -2.859287012430179e-04 0.000000000000000e+00
-2.188117813818579e-05 -2.689154794739872e-04 0.000000000000000e+00
-2.288837375125864e-05 -2.425549856838131e-04 0.000000000000000e+00
-3.899854130765732e-05 -2.567153007880075e-04 0.000000000000000e+00
-6.625900597639841e-06 3.119203628884315e-05 0.000000000000000e+00
-4.977903726996929e-06 2.266529763915768e-05 0.000000000000000e+00
0.000000000000000e+00 0.000000000000000e+00 0.000000000000000e+00
0.000000000000000e+00 0.000000000000000e+00 0.000000000000000e+00
-8.374636044447862e-06 5.665722151283426e-05 0.000000000000000e+00
-6.330048562865369e-06 3.962625479264612e-05 0.000000000000000e+00
-4.977903726996929e-06 2.266529763915768e-05 0.000000000000000e+00
-6.625900597639841e-06 3.119203628884315e-05 0.000000000000000e+00
-6.986012759256206e-06 6.641021181545576e-05 0.000000000000000e+00
-5.491266306082453e-06 4.736766294132831e-05 0.000000000000000e+00
-6.330048562865369e-06 3.962625479264612e-05 0.000000000000000e+00
-8.374636044447862e-06 5.665722151283426e-05 0.000000000000000e+00
-7.088030674302559e-06 6.033076618931315e-05 0.000000000000000e+00
-4.666445163509519e-06 4.550378029611834e-05 0.000000000000000e+00
-5.491266306082453e-06 4.736766294132831e-05 0.000000000000000e+00
-6.986012759256206e-06 6.641021181545576e-05 0.000000000000000e+00
-9.429493312685022e-06 4.727509862963236e-05 0.000000000000000e+00
-5.160962301554460e-06 3.719721250657829e-05 0.000000000000000e+00
-4.666445163509519e-06 4.550378029611834e-05 0.000000000000000e+00
-7.088030674302559e-06 6.033076618931315e-05 0.000000000000000e+00
-1.262267787158532e-05 3.354363748670556e-05 0.000000000000000e+00
-6.590810820812228e-06 2.592741494601756e-05 0.000000000000000e+00
-5.160962301554460e-06 3.719721250657829e-05 0.000000000000000e+00
-9.429493312685022e-06 4.727509862963236e-05 0.000000000000000e+00
-1.537003933278474e-05 2.013817519160686e-05 0.000000000000000e+00
-8.077078551595142e-06 1.314353892223198e-05 0.000000000000000e+00
-6.590810820812228e-06 2.592741494601756e-05 0.000000000000000e+00
-1.262267787158532e-05 3.354363748670556e-05 0.000000000000000e+00
-1.732070331413388e-05 5.273367449650297e-06 0.000000000000000e+00
-9.141438213711877e-06 -1.353763236439593e-06 0.000000000000000e+00
-8.077078551595142e-06 1.314353892223198e-05 0.000000000000000e+00
-1.537003933278474e-05 2.013817519160686e-05 0.000000000000000e+00
-1.877840632181074e-05 -1.256236298535238e-05 0.000000000000000e+00
-9.811150926723975e-06 -1.811134947096461e-05 0.000000000000000e+00
-9.141438213711877e-06 -1.353763236439593e-06 0.000000000000000e+00
-1.732070331413388e-05 5.273367449650297e-06 0.000000000000000e+00
-2.009691544360217e-05 -3.345548790107423e-05 0.000000000000000e+00
-1.030242307096725e-05 -3.722458953511211e-05 0.000000000000000e+00
-9.811150926723975e-06 -1.811134947096461e-05 0.000000000000000e+00
-1.877840632181074e-05 -1.256236298535238e-05 0.000000000000000e+00
-2.136912230523973e-05 -5.660752170122658e-05 0.000000000000000e+00
-1.074488629439421e-05 -5.832398926589518e-05 0.000000000000000e+00
-1.030242307096725e-05 -3.722458953511211e-05 0.000000000000000e+00
-2.009691544360217e-05 -3.345548790107423e-05 0.000000000000000e+00
-2.248744418630425e-05 -8.123119553343761e-05 0.000000000000000e+00
-1.112745635086052e-05 -8.090833592018302e-05 0.000000000000000e+00
-1.074488629439421e-05 -5.832398926589518e-05 0.000000000000000e+00
-2.136912230523973e-05 -5.660752170122658e-05 0.000000000000000e+00
-2.332971128135745e-05 -1.069134919348237e-04 0.000000000000000e+00
-1.138284255208234e-05 -1.045738154142116e-04 0.000000000000000e+00
-1.112745635086052e-05 -8.090833592018302e-05 0.000000000000000e+00
-2.248744418630425e-05 -8.123119553343761e-05 0.000000000000000e+00
-2.385356965740691e-05 -1.334571466398927e-04 0.000000000000000e+00
-1.146657103514369e-05 -1.290222343003439e-04 0.000000000000000e+00
-1.138284255208234e-05 -1.045738154142116e-04 0.000000000000000e+00
-2.332971128135745e-05 -1.069134919348237e-04 0.000000000000000e+00
-2.407159295786428e-05 -1.606302827638548e-04 0.000000000000000e+00
-1.137016470451346e-05 -1.539740444361836e-04 0.000000000000000e+00
-1.146657103514369e-05 -1.290222343003439e-04 0.000000000000000e+00
-2.385356965740691e-05 -1.334571466398927e-04 0.000000000000000e+00
-2.399300851392425e-05 -1.880982619177215e-04 0.000000000000000e+00
-1.109648191740915e-05 -1.791192288127873e-04 0.000000000000000e+00
-1.137016470451346e-05 -1.539740444361836e-04 0.000000000000000e+00
-2.407159295786428e-05 -1.606302827638548e-04 0.000000000000000e+00
-2.360277408457112e-05 -2.155078333045297e-04 0.000000000000000e+00
-1.064496121607003e-05 -2.041271157935714e-04 0.000000000000000e+00
-1.109648191740915e-05 -1.791192288127873e-04 0.000000000000000e+00
-2.399300851392425e-05 -1.880982619177215e-04 0.000000000000000e+00
-2.288837375125864e-05 -2.425549856838131e-04 0.000000000000000e+00
-1.002275427965929e-05 -2.286573570448499e-04 0.000000000000000e+00
-1.064496121607003e-05 -2.041271157935714e-04 0.000000000000000e+00
-2.360277408457112e-05 -2.155078333045297e-04 0.000000000000000e+00
-2.188117813818579e-05 -2.689154794739872e-04 0.000000000000000e+00
-9.259225544857729e-06 -2.523267679481288e-04 0.000000000000000e+00
-1.002275427965929e-05 -2.286573570448499e-04 0.000000000000000e+00
-2.288837375125864e-05 -2.425549856838131e-04 0.000000000000000e+00
-4.977903726996929e-06 2.266529763915768e-05 0.000000000000000e+00
-3.519450971599480e-06 1.614760679948627e-05 0.000000000000000e+00
0.000000000000000e+00 0.000000000000000e+00 0.000000000000000e+00
0.000000000000000e+00 0.000000000000000e+00 0.000000000000000e+00
-6.330048562865369e-06 3.962625479264612e-05 0.000000000000000e+00
-4.478884786868878e-06 2.803799779497840e-05 0.000000000000000e+00
-3.519450971599480e-06 1.614760679948627e-05 0.000000000000000e+00
-4.977903726996929e-06 2.266529763915768e-05 0.000000000000000e+00
-5.491266306082453e-06 4.736766294132831e-05 0.000000000000000e+00
-3.803699430392528e-06 3.383181297034651e-05 0.000000000000000e+00
-4.478884786868878e-06 2.803799779497840e-05 0.000000000000000e+00
-6.330048562865369e-06 3.962625479264612e-05 0.000000000000000e+00
-4.666445163509519e-06 4.550378029611834e-05 0.000000000000000e+00
-2.743179508438350e-06 3.320671850775306e-05 0.000000000000000e+00
-3.803699430392528e-06 3.383181297034651e-05 0.000000000000000e+00
-5.491266306082453e-06 4.736766294132831e-05 0.000000000000000e+00
-5.160962301554460e-06 3.719721250657829e-05 0.000000000000000e+00
-2.155771309254861e-06 2.739244522209588e-05 0.000000000000000e+00
-2.743179508438350e-06 3.320671850775306e-05 0.000000000000000e+00
-4.666445163509519e-06 4.550378029611834e-05 0.000000000000000e+00
-6.590810820812228e-06 2.592741494601756e-05 0.000000000000000e+00
-2.161055857549137e-06 1.810310474131196e-05 0.000000000000000e+00
-2.155771309254861e-06 2.739244522209588e-05 0.000000000000000e+00
-5.160962301554460e-06 3.719721250657829e-05 0.000000000000000e+00
-8.077078551595142e-06 1.314353892223198e-05 0.000000000000000e+00
-2.404424953980371e-06 6.474169881083337e-06 0.000000000000000e+00
-2.161055857549137e-06 1.810310474131196e-05 0.000000000000000e+00
-6.590810820812228e-06 2.592741494601756e-05 0.000000000000000e+00
-9.141438213711877e-06 -1.353763236439593e-06 0.000000000000000e+00
-2.557681867593951e-06 -7.147188161444405e-06 0.000000000000000e+00
-2.404424953980371e-06 6.474169881083337e-06 0.000000000000000e+00
-8.077078551595142e-06 1.314353892223198e-05 0.000000000000000e+00
-9.811150926723975e-06 -1.811134947096461e-05 0.000000000000000e+00
-2.527918705378524e-06 -2.277488317408052e-05 0.000000000000000e+00
-2.557681867593951e-06 -7.147188161444405e-06 0.000000000000000e+00
-9.141438213711877e-06 -1.353763236439593e-06 0.000000000000000e+00
-1.030242307096725e-05 -3.722458953511211e-05 0.000000000000000e+00
-2.382980077241118e-06 -4.036245179589347e-05 0.000000000000000e+00
-2.527918705378524e-06 -2.277488317408052e-05 0.000000000000000e+00
-9.811150926723975e-06 -1.811134947096461e-05 0.000000000000000e+00
-1.074488629439421e-05 -5.832398926589518e-05 0.000000000000000e+00
-2.205587403596508e-06 -5.967259266890665e-05 0.000000000000000e+00
-2.382980077241118e-06 -4.036245179589347e-05 0.000000000000000e+00
-1.030242307096725e-05 -3.722458953511211e-05 0.000000000000000e+00
-1.112745635086052e-05 -8.090833592018302e-05 0.000000000000000e+00
-2.021892313664707e-06 -8.035835840962838e-05 0.000000000000000e+00
-2.205587403596508e-06 -5.967259266890665e-05 0.000000000000000e+00
-1.074488629439421e-05 -5.832398926589518e-05 0.000000000000000e+00
-1.138284255208234e-05 -1.045738154142116e-04 0.000000000000000e+00
-1.814030526497356e-06 -1.020700460969836e-04 0.000000000000000e+00
-2.021892313664707e-06 -8.035835840962838e-05 0.000000000000000e+00
-1.112745635086052e-05 -8.090833592018302e-05 0.000000000000000e+00
-1.146657103514369e-05 -1.290222343003439e-04 0.000000000000000e+00
-1.558075287419335e-06 -1.244917179157931e-04 0.000000000000000e+00
-1.814030526497356e-06 -1.020700460969836e-04 0.000000000000000e+00
-1.138284255208234e-05 -1.045738154142116e-04 0.000000000000000e+00
-1.137016470451346e-05 -1.539740444361836e-04 0.000000000000000e+00
-1.243329555515120e-06 -1.473226158194619e-04 0.000000000000000e+00
-1.558075287419335e-06 -1.244917179157931e-04 0.000000000000000e+00
-1.146657103514369e-05 -1.290222343003439e-04 0.000000000000000e+00
-1.109648191740915e-05 -1.791192288127873e-04 0.000000000000000e+00
-8.705072111518178e-07 -1.702529353158208e-04 0.000000000000000e+00
-1.243329555515120e-06 -1.473226158194619e-04 0.000000000000000e+00
-1.137016470451346e-05 -1.539740444361836e-04 0.000000000000000e+00
-1.064496121607003e-05 -2.041271157935714e-04 0.000000000000000e+00
-4.466804479793778e-07 -1.929546192644886e-04 0.000000000000000e+00
-8.705072111518178e-07 -1.702529353158208e-04 0.000000000000000e+00
-1.109648191740915e-05 -1.791192288127873e-04 0.000000000000000e+00
-1.002275427965929e-05 -2.286573570448499e-04 0.000000000000000e+00
1.363981288860772e-08 -2.150755944238664e-04 0.000000000000000e+00
-4.466804479793778e-07 -1.929546192644886e-04 0.000000000000000e+00
-1.064496121607003e-05 -2.041271157935714e-04 0.000000000000000e+00
-9.259225544857729e-06 -2.523267679481288e-04 0.000000000000000e+00
4.893232186131381e-07 -2.362269679605371e-04 0.000000000000000e+00
1.363981288860772e-08 -2.150755944238664e-04 0.000000000000000e+00
-1.002275427965929e-05 -2.286573570448499e-04 0.000000000000000e+00
-3.519450971599480e-06 1.614760679948627e-05 0.000000000000000e+00
-2.392693321373997e-06 1.139530632127930e-05 0.000000000000000e+00
0.000000000000000e+00 0.000000000000000e+00 0.000000000000000e+00
0.000000000000000e+00 0.000000000000000e+00 0.000000000000000e+00
-4.478884786868878e-06 2.803799779497840e-05 0.000000000000000e+00
-2.918461253784631e-06 1.972759802782996e-05 0.000000000000000e+00
-2.392693321373997e-06 1.139530632127930e-05 0.000000000000000e+00
-3.519450971599480e-06 1.614760679948627e-05 0.000000000000000e+00
-3.803699430392528e-06 3.383181297034651e-05 0.000000000000000e+00
-2.175425677638721e-06 2.380269470569986e-05 0.000000000000000e+00
-2.918461253784631e-06 1.972759802782996e-05 0.000000000000000e+00
-4.478884786868878e-06 2.803799779497840e-05 0.000000000000000e+00
-2.743179508438350e-06 3.320671850775306e-05 0.000000000000000e+00
-9.097510922256143e-07 2.328360197102065e-05 0.000000000000000e+00
-2.175425677638721e-06 2.380269470569986e-05 0.000000000000000e+00
-3.803699430392528e-06 3.383181297034651e-05 0.000000000000000e+00
-2.155771309254861e-06 2.739244522209588e-05 0.000000000000000e+00
2.971407516616175e-07 1.864028216175409e-05 0.000000000000000e+00
-9.097510922256143e-07 2.328360197102065e-05 0.000000000000000e+00
-2.743179508438350e-06 3.320671850775306e-05 0.000000000000000e+00
-2.161055857549137e-06 1.810310474131196e-05 0.000000000000000e+00
1.222089625136427e-06 1.072167203961373e-05 0.000000000000000e+00
2.971407516616175e-07 1.864028216175409e-05 0.000000000000000e+00
-2.155771309254861e-06 2.739244522209588e-05 0.000000000000000e+00
-2.404424953980371e-06 6.474169881083337e-06 0.000000000000000e+00
1.930771662039248e-06 2.707567884597499e-07 0.000000000000000e+00
1.222089625136427e-06 1.072167203961373e-05 0.000000000000000e+00
-2.161055857549137e-06 1.810310474131196e-05 0.000000000000000e+00
-2.557681867593951e-06 -7.147188161444405e-06 0.000000000000000e+00
2.573192879072543e-06 -1.228142144532643e-05 0.000000000000000e+00
1.930771662039248e-06 2.707567884597499e-07 0.000000000000000e+00
-2.404424953980371e-06 6.474169881083337e-06 0.000000000000000e+00
-2.527918705378524e-06 -2.277488317408052e-05 0.000000000000000e+00
3.232654205366400e-06 -2.672805962697807e-05 0.000000000000000e+00
2.573192879072543e-06 -1.228142144532643e-05 0.000000000000000e+00
-2.557681867593951e-06 -7.147188161444405e-06 0.000000000000000e+00
-2.382980077241118e-06 -4.036245179589347e-05 0.000000000000000e+00
3.906271019646457e-06 -4.290750447879529e-05 0.000000000000000e+00
3.232654205366400e-06 -2.672805962697807e-05 0.000000000000000e+00
-2.527918705378524e-06 -2.277488317408052e-05 0.000000000000000e+00
-2.205587403596508e-06 -5.967259266890665e-05 0.000000000000000e+00
4.556652244190016e-06 -6.060089467874284e-05 0.000000000000000e+00
3.906271019646457e-06 -4.290750447879529e-05 0.000000000000000e+00
-2.382980077241118e-06 -4.036245179589347e-05 0.000000000000000e+00
-2.021892313664707e-06 -8.035835840962838e-05 0.000000000000000e+00
5.157321136390300e-06 -7.952858522620529e-05 0.000000000000000e+00
4.556652244190016e-06 -6.060089467874284e-05 0.000000000000000e+00
-2.205587403596508e-06 -5.967259266890665e-05 0.000000000000000e+00
-1.814030526497356e-06 -1.020700460969836e-04 0.000000000000000e+00
5.703069807602492e-06 -9.938651253595109e-05 0.000000000000000e+00
5.157321136390300e-06 -7.952858522620529e-05 0.000000000000000e+00
-2.021892313664707e-06 -8.035835840962838e-05 0.000000000000000e+00
-1.558075287419335e-06 -1.244917179157931e-04 0.000000000000000e+00
6.198510050664657e-06 -1.198707092280888e-04 0.000000000000000e+00
5.703069807602492e-06 -9.938651253595109e-05 0.000000000000000e+00
-1.814030526497356e-06 -1.020700460969836e-04 0.000000000000000e+00
-1.243329555515120e-06 -1.473226158194619e-04 0.000000000000000e+00
6.645986083300492e-06 -1.406786030971982e-04 0.000000000000000e+00
6.198510050664657e-06 -1.198707092280888e-04 0.000000000000000e+00
-1.558075287419335e-06 -1.244917179157931e-04 0.000000000000000e+00
-8.705072111518178e-07 -1.702529353158208e-04 0.000000000000000e+00
7.041065821864459e-06 -1.614996924744418e-04 0.000000000000000e+00
6.645986083300492e-06 -1.406786030971982e-04 0.000000000000000e+00
-1.243329555515120e-06 -1.473226158194619e-04 0.000000000000000e+00
-4.466804479793778e-07 -1.929546192644886e-04 0.000000000000000e+00
7.372541129874540e-06 -1.820065524042210e-04 0.000000000000000e+00