<?xml version="1.0" ?> 
<!-- 
# vtk DataFile Version 3.0
-->
<VTKFile type="UnstructuredGrid" version="0.1" compressor="vtkZLibDataCompressor" byte_order="LittleEndian">
  <UnstructuredGrid>
    <FieldData>
      <DataArray type="Float64" Name="TIME" NumberOfTuples="1" format="ascii">
9.999999999999999e-01 
      </DataArray>
    </FieldData>

    <Piece NumberOfPoints="1988" NumberOfCells="497" >
      <Points>
        <DataArray type="Float64" NumberOfComponents="3" format="ascii">
6.250000000000000e-01 0.000000000000000e+00 0.000000000000000e+00
6.249999999999996e-01 3.124999999999979e-02 0.000000000000000e+00
5.937500000000000e-01 3.124999999999995e-02 0.000000000000000e+00
5.937500000000000e-01 0.000000000000000e+00 0.000000000000000e+00
6.562500000000000e-01 0.000000000000000e+00 0.000000000000000e+00
6.562499999999998e-01 3.124999999999947e-02 0.000000000000000e+00
6.249999999999996e-01 3.124999999999979e-02 0.000000000000000e+00
6.250000000000000e-01 0.000000000000000e+00 0.000000000000000e+00
6.875000000000000e-01 0.000000000000000e+00 0.000000000000000e+00
6.874999999999999e-01 3.124999999999963e-02 0.000000000000000e+00
6.562499999999998e-01 3.124999999999947e-02 0.000000000000000e+00
6.562500000000000e-01 0.000000000000000e+00 0.000000000000000e+00
7.187500000000000e-01 0.000000000000000e+00 0.000000000000000e+00
7.187499999999994e-01 3.124999999999979e-02 0.000000000000000e+00
6.874999999999999e-01 3.124999999999963e-02 0.000000000000000e+00
6.875000000000000e-01 0.000000000000000e+00 0.000000000000000e+00
7.500000000000000e-01 0.000000000000000e+00 0.000000000000000e+00
7.499999999999998e-01 3.124999999999979e-02 0.000000000000000e+00
7.187499999999994e-01 3.124999999999979e-02 0.000000000000000e+00
7.187500000000000e-01 0.000000000000000e+00 0.000000000000000e+00
7.812500000000000e-01 0.000000000000000e+00 0.000000000000000e+00
7.812500000000001e-01 3.124999999999979e-02 0.000000000000000e+00
7.499999999999998e-01 3.124999999999979e-02 0.000000000000000e+00
7.500000000000000e-01 0.000000000000000e+00 0.000000000000000e+00
8.125000000000000e-01 0.000000000000000e+00 0.000000000000000e+00
8.124999999999997e-01 3.125000000000010e-02 0.000000000000000e+00
7.812500000000001e-01 3.124999999999979e-02 0.000000000000000e+00
7.812500000000000e-01 0.000000000000000e+00 0.000000000000000e+00
8.437500000000000e-01 0.000000000000000e+00 0.000000000000000e+00
8.437499999999999e-01 3.124999999999979e-02 0.000000000000000e+00
8.124999999999997e-01 3.125000000000010e-02 0.000000000000000e+00
8.125000000000000e-01 0.000000000000000e+00 0.000000000000000e+00
8.750000000000000e-01 0.000000000000000e+00 0.000000000000000e+00
8.749999999999999e-01 3.124999999999979e-02 0.000000000000000e+00
8.437499999999999e-01 3.124999999999979e-02 0.000000000000000e+00
8.437500000000000e-01 0.000000000000000e+00 0.000000000000000e+00
9.062500000000000e-01 0.000000000000000e+00 0.000000000000000e+00
9.062499999999998e-01 3.124999999999979e-02 0.000000000000000e+00
8.749999999999999e-01 3.124999999999979e-02 0.000000000000000e+00
8.750000000000000e-01 0.000000000000000e+00 0.000000000000000e+00
9.375000000000000e-01 0.000000000000000e+00 0.000000000000000e+00
9.374999999999999e-01 3.125000000000010e-02 0.000000000000000e+00
9.062499999999998e-01 3.124999999999979e-02 0.000000000000000e+00
9.062500000000000e-01 0.000000000000000e+00 0.000000000000000e+00
9.687500000000000e-01 0.000000000000000e+00 0.000000000000000e+00
9.687500000000001e-01 3.124999999999995e-02 0.000000000000000e+00
9.374999999999999e-01 3.125000000000010e-02 0.000000000000000e+00
9.375000000000000e-01 0.000000000000000e+00 0.000000000000000e+00
1.000000000000000e+00 0.000000000000000e+00 0.000000000000000e+00
1.000000000000000e+00 3.125000000000000e-02 0.000000000000000e+00
9.687500000000001e-01 3.124999999999995e-02 0.000000000000000e+00
9.687500000000000e-01 0.000000000000000e+00 0.000000000000000e+00
6.249999999999996e-01 3.124999999999979e-02 0.000000000000000e+00
6.250000000000000e-01 6.249999999999971e-02 0.000000000000000e+00
5.937500000000002e-01 6.250000000000003e-02 0.000000000000000e+00
5.937500000000000e-01 3.124999999999995e-02 0.000000000000000e+00
6.562499999999998e-01 3.124999999999947e-02 0.000000000000000e+00
6.562499999999998e-01 6.250000000000003e-02 0.000000000000000e+00
6.250000000000000e-01 6.249999999999971e-02 0.000000000000000e+00
6.249999999999996e-01 3.124999999999979e-02 0.000000000000000e+00
6.874999999999999e-01 3.124999999999963e-02 0.000000000000000e+00
6.875000000000002e-01 6.249999999999986e-02 0.000000000000000e+00
6.562499999999998e-01 6.250000000000003e-02 0.000000000000000e+00
6.562499999999998e-01 3.124999999999947e-02 0.000000000000000e+00
7.187499999999994e-01 3.124999999999979e-02 0.000000000000000e+00
7.187500000000001e-01 6.249999999999971e-02 0.000000000000000e+00
6.875000000000002e-01 6.249999999999986e-02 0.000000000000000e+00
6.874999999999999e-01 3.124999999999963e-02 0.000000000000000e+00
7.499999999999998e-01 3.124999999999979e-02 0.000000000000000e+00
7.499999999999998e-01 6.250000000000003e-02 0.000000000000000e+00
7.187500000000001e-01 6.249999999999971e-02 0.000000000000000e+00
7.187499999999994e-01 3.124999999999979e-02 0.000000000000000e+00
7.812500000000001e-01 3.124999999999979e-02 0.000000000000000e+00
7.812500000000001e-01 6.250000000000017e-02 0.000000000000000e+00
7.499999999999998e-01 6.250000000000003e-02 0.000000000000000e+00
7.499999999999998e-01 3.124999999999979e-02 0.000000000000000e+00
8.124999999999997e-01 3.125000000000010e-02 0.000000000000000e+00
8.124999999999998e-01 6.249999999999987e-02 0.000000000000000e+00
7.812500000000001e-01 6.250000000000017e-02 0.000000000000000e+00
7.812500000000001e-01 3.124999999999979e-02 0.000000000000000e+00
8.437499999999999e-01 3.124999999999979e-02 0.000000000000000e+00
8.437499999999999e-01 6.249999999999971e-02 0.000000000000000e+00
8.124999999999998e-01 6.249999999999987e-02 0.000000000000000e+00
8.124999999999997e-01 3.125000000000010e-02 0.000000000000000e+00
8.749999999999999e-01 3.124999999999979e-02 0.000000000000000e+00
8.750000000000001e-01 6.250000000000003e-02 0.000000000000000e+00
8.437499999999999e-01 6.249999999999971e-02 0.000000000000000e+00
8.437499999999999e-01 3.124999999999979e-02 0.000000000000000e+00
9.062499999999998e-01 3.124999999999979e-02 0.000000000000000e+00
9.062499999999997e-01 6.250000000000003e-02 0.000000000000000e+00
8.750000000000001e-01 6.250000000000003e-02 0.000000000000000e+00
8.749999999999999e-01 3.124999999999979e-02 0.000000000000000e+00
9.374999999999999e-01 3.125000000000010e-02 0.000000000000000e+00
9.375000000000001e-01 6.250000000000003e-02 0.000000000000000e+00
9.062499999999997e-01 6.250000000000003e-02 0.000000000000000e+00
9.062499999999998e-01 3.124999999999979e-02 0.000000000000000e+00
9.687500000000001e-01 3.124999999999995e-02 0.000000000000000e+00
9.687500000000000e-01 6.249999999999987e-02 0.000000000000000e+00
9.375000000000001e-01 6.250000000000003e-02 0.000000000000000e+00
9.374999999999999e-01 3.125000000000010e-02 0.000000000000000e+00
1.000000000000000e+00 3.125000000000000e-02 0.000000000000000e+00
1.000000000000000e+00 6.250000000000000e-02 0.000000000000000e+00
9.687500000000000e-01 6.249999999999987e-02 0.000000000000000e+00
9.687500000000001e-01 3.124999999999995e-02 0.000000000000000e+00
6.250000000000000e-01 6.249999999999971e-02 0.000000000000000e+00
6.250000000000003e-01 9.375000000000008e-02 0.000000000000000e+00
5.937500000000001e-01 9.374999999999963e-02 0.000000000000000e+00
5.937500000000002e-01 6.250000000000003e-02 0.000000000000000e+00
6.562499999999998e-01 6.250000000000003e-02 0.000000000000000e+00
6.562499999999998e-01 9.375000000000008e-02 0.000000000000000e+00
6.250000000000003e-01 9.375000000000008e-02 0.000000000000000e+00
6.250000000000000e-01 6.249999999999971e-02 0.000000000000000e+00
6.875000000000002e-01 6.249999999999986e-02 0.000000000000000e+00
6.875000000000001e-01 9.374999999999994e-02 0.000000000000000e+00
6.562499999999998e-01 9.375000000000008e-02 0.000000000000000e+00
6.562499999999998e-01 6.250000000000003e-02 0.000000000000000e+00
7.187500000000001e-01 6.249999999999971e-02 0.000000000000000e+00
7.187500000000002e-01 9.374999999999981e-02 0.000000000000000e+00
6.875000000000001e-01 9.374999999999994e-02 0.000000000000000e+00
6.875000000000002e-01 6.249999999999986e-02 0.000000000000000e+00
7.499999999999998e-01 6.250000000000003e-02 0.000000000000000e+00
7.499999999999996e-01 9.374999999999994e-02 0.000000000000000e+00
7.187500000000002e-01 9.374999999999981e-02 0.000000000000000e+00
7.187500000000001e-01 6.249999999999971e-02 0.000000000000000e+00
7.812500000000001e-01 6.250000000000017e-02 0.000000000000000e+00
7.812500000000000e-01 9.374999999999994e-02 0.000000000000000e+00
7.499999999999996e-01 9.374999999999994e-02 0.000000000000000e+00
7.499999999999998e-01 6.250000000000003e-02 0.000000000000000e+00
8.124999999999998e-01 6.249999999999987e-02 0.000000000000000e+00
8.124999999999998e-01 9.374999999999981e-02 0.000000000000000e+00
7.812500000000000e-01 9.374999999999994e-02 0.000000000000000e+00
7.812500000000001e-01 6.250000000000017e-02 0.000000000000000e+00
8.437499999999999e-01 6.249999999999971e-02 0.000000000000000e+00
8.437500000000000e-01 9.375000000000008e-02 0.000000000000000e+00
8.124999999999998e-01 9.374999999999981e-02 0.000000000000000e+00
8.124999999999998e-01 6.249999999999987e-02 0.000000000000000e+00
8.750000000000001e-01 6.250000000000003e-02 0.000000000000000e+00
8.750000000000001e-01 9.374999999999947e-02 0.000000000000000e+00
8.437500000000000e-01 9.375000000000008e-02 0.000000000000000e+00
8.437499999999999e-01 6.249999999999971e-02 0.000000000000000e+00
9.062499999999997e-01 6.250000000000003e-02 0.000000000000000e+00
9.062499999999998e-01 9.374999999999981e-02 0.000000000000000e+00
8.750000000000001e-01 9.374999999999947e-02 0.000000000000000e+00
8.750000000000001e-01 6.250000000000003e-02 0.000000000000000e+00
[...]
  <PointData>
        <DataArray type="Float64" Name="displacement" NumberOfComponents="3" format="ascii">
-3.631776397613587e-05 -3.142526359114459e-04 0.000000000000000e+00
-2.065559128520170e-05 -2.940789948463111e-04 0.000000000000000e+00
-2.188117813818579e-05 -2.689154794739872e-04 0.000000000000000e+00
-3.786333616663204e-05 -2.859287012430179e-04 0.000000000000000e+00
-3.440045025414435e-05 -3.405864271489284e-04 0.000000000000000e+00
-1.924334208230406e-05 -3.173224997140406e-04 0.000000000000000e+00
-2.065559128520170e-05 -2.940789948463111e-04 0.000000000000000e+00
-3.631776397613587e-05 -3.142526359114459e-04 0.000000000000000e+00
-3.212225063346650e-05 -3.637362274515359e-04 0.000000000000000e+00
-1.750901112431423e-05 -3.380865343042965e-04 0.000000000000000e+00
-1.924334208230406e-05 -3.173224997140406e-04 0.000000000000000e+00
-3.440045025414435e-05 -3.405864271489284e-04 0.000000000000000e+00
-2.944771342871098e-05 -3.839378451626679e-04 0.000000000000000e+00
-1.515239276136034e-05 -3.566514987000822e-04 0.000000000000000e+00
-1.750901112431423e-05 -3.380865343042965e-04 0.000000000000000e+00
-3.212225063346650e-05 -3.637362274515359e-04 0.000000000000000e+00
-2.633703265492568e-05 -4.041467038526395e-04 0.000000000000000e+00
-1.200246549139734e-05 -3.743712787906541e-04 0.000000000000000e+00
-1.515239276136034e-05 -3.566514987000822e-04 0.000000000000000e+00
-2.944771342871098e-05 -3.839378451626679e-04 0.000000000000000e+00
-2.285528722268616e-05 -4.288435885976594e-04 0.000000000000000e+00
-8.540902539100435e-06 -3.924418823203171e-04 0.000000000000000e+00
-1.200246549139734e-05 -3.743712787906541e-04 0.000000000000000e+00
-2.633703265492568e-05 -4.041467038526395e-04 0.000000000000000e+00
-1.927905745676404e-05 -4.590539156106655e-04 0.000000000000000e+00
-6.253297888023659e-06 -4.089301937868346e-04 0.000000000000000e+00
-8.540902539100435e-06 -3.924418823203171e-04 0.000000000000000e+00
-2.285528722268616e-05 -4.288435885976594e-04 0.000000000000000e+00
-1.608300041774166e-05 -4.853807372562288e-04 0.000000000000000e+00
-7.242934523917544e-06 -4.155114429961397e-04 0.000000000000000e+00
-6.253297888023659e-06 -4.089301937868346e-04 0.000000000000000e+00
-1.927905745676404e-05 -4.590539156106655e-04 0.000000000000000e+00
-1.374267755812113e-05 -4.843327634605989e-04 0.000000000000000e+00
-1.277524416261174e-05 -3.970719747448920e-04 0.000000000000000e+00
-7.242934523917544e-06 -4.155114429961397e-04 0.000000000000000e+00
-1.608300041774166e-05 -4.853807372562288e-04 0.000000000000000e+00
-1.239541817643070e-05 -4.246966062900517e-04 0.000000000000000e+00
-2.105603440942944e-05 -3.376578915054578e-04 0.000000000000000e+00
-1.277524416261174e-05 -3.970719747448920e-04 0.000000000000000e+00
-1.374267755812113e-05 -4.843327634605989e-04 0.000000000000000e+00
-1.137381699045144e-05 -2.886832999541441e-04 0.000000000000000e+00
-2.547634717254134e-05 -2.337952360157218e-04 0.000000000000000e+00
-2.105603440942944e-05 -3.376578915054578e-04 0.000000000000000e+00
-1.239541817643070e-05 -4.246966062900517e-04 0.000000000000000e+00
-8.548488891370350e-06 -1.070578536435103e-04 0.000000000000000e+00
-1.657535671805343e-05 -1.110831647592903e-04 0.000000000000000e+00
-2.547634717254134e-05 -2.337952360157218e-04 0.000000000000000e+00
-1.137381699045144e-05 -2.886832999541441e-04 0.000000000000000e+00
0.000000000000000e+00 0.000000000000000e+00 0.000000000000000e+00
0.000000000000000e+00 0.000000000000000e+00 0.000000000000000e+00
-1.657535671805343e-05 -1.110831647592903e-04 0.000000000000000e+00
-8.548488891370350e-06 -1.070578536435103e-04 0.000000000000000e+00
-2.065559128520170e-05 -2.940789948463111e-04 0.000000000000000e+00
-8.387313978096451e-06 -2.746649351503222e-04 0.000000000000000e+00
-9.259225544857729e-06 -2.523267679481288e-04 0.000000000000000e+00
-2.188117813818579e-05 -2.689154794739872e-04 0.000000000000000e+00
-1.924334208230406e-05 -3.173224997140406e-04 0.000000000000000e+00
-7.384506320650001e-06 -2.951608369627388e-04 0.000000000000000e+00
-8.387313978096451e-06 -2.746649351503222e-04 0.000000000000000e+00
-2.065559128520170e-05 -2.940789948463111e-04 0.000000000000000e+00
-1.750901112431423e-05 -3.380865343042965e-04 0.000000000000000e+00
-6.134241266942494e-06 -3.134604506599308e-04 0.000000000000000e+00
-7.384506320650001e-06 -2.951608369627388e-04 0.000000000000000e+00
-1.924334208230406e-05 -3.173224997140406e-04 0.000000000000000e+00
-1.515239276136034e-05 -3.566514987000822e-04 0.000000000000000e+00
-4.518973266084185e-06 -3.295702070516697e-04 0.000000000000000e+00
-6.134241266942494e-06 -3.134604506599308e-04 0.000000000000000e+00
-1.750901112431423e-05 -3.380865343042965e-04 0.000000000000000e+00
-1.200246549139734e-05 -3.743712787906541e-04 0.000000000000000e+00
-2.699493878137065e-06 -3.436772679130097e-04 0.000000000000000e+00
-4.518973266084185e-06 -3.295702070516697e-04 0.000000000000000e+00
-1.515239276136034e-05 -3.566514987000822e-04 0.000000000000000e+00
-8.540902539100435e-06 -3.924418823203171e-04 0.000000000000000e+00
-1.442899866831305e-06 -3.552124695785506e-04 0.000000000000000e+00
-2.699493878137065e-06 -3.436772679130097e-04 0.000000000000000e+00
-1.200246549139734e-05 -3.743712787906541e-04 0.000000000000000e+00
-6.253297888023659e-06 -4.089301937868346e-04 0.000000000000000e+00
-2.145923083676652e-06 -3.612928526319522e-04 0.000000000000000e+00
-1.442899866831305e-06 -3.552124695785506e-04 0.000000000000000e+00
-8.540902539100435e-06 -3.924418823203171e-04 0.000000000000000e+00
-7.242934523917544e-06 -4.155114429961397e-04 0.000000000000000e+00
-6.172090847307851e-06 -3.555604794842922e-04 0.000000000000000e+00
-2.145923083676652e-06 -3.612928526319522e-04 0.000000000000000e+00
-6.253297888023659e-06 -4.089301937868346e-04 0.000000000000000e+00
-1.277524416261174e-05 -3.970719747448920e-04 0.000000000000000e+00
-1.344987872501753e-05 -3.291094110148666e-04 0.000000000000000e+00
-6.172090847307851e-06 -3.555604794842922e-04 0.000000000000000e+00
-7.242934523917544e-06 -4.155114429961397e-04 0.000000000000000e+00
-2.105603440942944e-05 -3.376578915054578e-04 0.000000000000000e+00
-2.099165348195030e-05 -2.748000535396551e-04 0.000000000000000e+00
-1.344987872501753e-05 -3.291094110148666e-04 0.000000000000000e+00
-1.277524416261174e-05 -3.970719747448920e-04 0.000000000000000e+00
-2.547634717254134e-05 -2.337952360157218e-04 0.000000000000000e+00
-2.302169275878275e-05 -1.941740006539247e-04 0.000000000000000e+00
-2.099165348195030e-05 -2.748000535396551e-04 0.000000000000000e+00
-2.105603440942944e-05 -3.376578915054578e-04 0.000000000000000e+00
-1.657535671805343e-05 -1.110831647592903e-04 0.000000000000000e+00
-1.581402300632205e-05 -9.875812403169346e-05 0.000000000000000e+00
-2.302169275878275e-05 -1.941740006539247e-04 0.000000000000000e+00
-2.547634717254134e-05 -2.337952360157218e-04 0.000000000000000e+00
0.000000000000000e+00 0.000000000000000e+00 0.000000000000000e+00
0.000000000000000e+00 0.000000000000000e+00 0.000000000000000e+00
-1.581402300632205e-05 -9.875812403169346e-05 0.000000000000000e+00
-1.657535671805343e-05 -1.110831647592903e-04 0.000000000000000e+00
-8.387313978096451e-06 -2.746649351503222e-04 0.000000000000000e+00
9.667825310639428e-07 -2.559798538880492e-04 0.000000000000000e+00
4.893232186131381e-07 -2.362269679605371e-04 0.000000000000000e+00
-9.259225544857729e-06 -2.523267679481288e-04 0.000000000000000e+00
-7.384506320650001e-06 -2.951608369627388e-04 0.000000000000000e+00
1.458377709128923e-06 -2.739024458026068e-04 0.000000000000000e+00
9.667825310639428e-07 -2.559798538880492e-04 0.000000000000000e+00
-8.387313978096451e-06 -2.746649351503222e-04 0.000000000000000e+00
-6.134241266942494e-06 -3.134604506599308e-04 0.000000000000000e+00
1.984737696405452e-06 -2.896271091321855e-04 0.000000000000000e+00
1.458377709128923e-06 -2.739024458026068e-04 0.000000000000000e+00
-7.384506320650001e-06 -2.951608369627388e-04 0.000000000000000e+00
-4.518973266084185e-06 -3.295702070516697e-04 0.000000000000000e+00
2.476358820662529e-06 -3.028433900850455e-04 0.000000000000000e+00
1.984737696405452e-06 -2.896271091321855e-04 0.000000000000000e+00
-6.134241266942494e-06 -3.134604506599308e-04 0.000000000000000e+00
-2.699493878137065e-06 -3.436772679130097e-04 0.000000000000000e+00
2.609538329564424e-06 -3.130460841160880e-04 0.000000000000000e+00
2.476358820662529e-06 -3.028433900850455e-04 0.000000000000000e+00
-4.518973266084185e-06 -3.295702070516697e-04 0.000000000000000e+00
-1.442899866831305e-06 -3.552124695785506e-04 0.000000000000000e+00
1.705607732981841e-06 -3.189555257301785e-04 0.000000000000000e+00
2.609538329564424e-06 -3.130460841160880e-04 0.000000000000000e+00
-2.699493878137065e-06 -3.436772679130097e-04 0.000000000000000e+00
-2.145923083676652e-06 -3.612928526319522e-04 0.000000000000000e+00
-1.092832111489230e-06 -3.178316148116229e-04 0.000000000000000e+00
1.705607732981841e-06 -3.189555257301785e-04 0.000000000000000e+00
-1.442899866831305e-06 -3.552124695785506e-04 0.000000000000000e+00
-6.172090847307851e-06 -3.555604794842922e-04 0.000000000000000e+00
-6.223246193476129e-06 -3.052969418412461e-04 0.000000000000000e+00
-1.092832111489230e-06 -3.178316148116229e-04 0.000000000000000e+00
-2.145923083676652e-06 -3.612928526319522e-04 0.000000000000000e+00
-1.344987872501753e-05 -3.291094110148666e-04 0.000000000000000e+00
-1.284014781221531e-05 -2.764205981431491e-04 0.000000000000000e+00
-6.223246193476129e-06 -3.052969418412461e-04 0.000000000000000e+00
-6.172090847307851e-06 -3.555604794842922e-04 0.000000000000000e+00
-2.099165348195030e-05 -2.748000535396551e-04 0.000000000000000e+00
-1.833333556044227e-05 -2.282753712592805e-04 0.000000000000000e+00
-1.284014781221531e-05 -2.764205981431491e-04 0.000000000000000e+00
-1.344987872501753e-05 -3.291094110148666e-04 0.000000000000000e+00
-2.302169275878275e-05 -1.941740006539247e-04 0.000000000000000e+00
-1.928255440011642e-05 -1.623754420950127e-04 0.000000000000000e+00
-1.833333556044227e-05 -2.282753712592805e-04 0.000000000000000e+00
-2.099165348195030e-05 -2.748000535396551e-04 0.000000000000000e+00
-1.581402300632205e-05 -9.875812403169346e-05 0.000000000000000e+00
-1.329001260284039e-05 -8.431554411901416e-05 0.000000000000000e+00
-1.928255440011642e-05 -1.623754420950127e-04 0.000000000000000e+00
-2.302169275878275e-05 -1.941740006539247e-04 0.000000000000000e+00
0.000000000000000e+00 0.000000000000000e+00 0.000000000000000e+00
0.000000000000000e+00 0.000000000000000e+00 0.000000000000000e+00
-1.329001260284039e-05 -8.431554411901416e-05 0.000000000000000e+00
-1.581402300632205e-05 -9.875812403169346e-05 0.000000000000000e+00
9.667825310639428e-07 -2.559798538880492e-04 0.000000000000000e+00
7.803219259639831e-06 -2.379807491918867e-04 0.000000000000000e+00
7.773313764279722e-06 -2.206418749015491e-04 0.000000000000000e+00
4.893232186131381e-07 -2.362269679605371e-04 0.000000000000000e+00
1.458377709128923e-06 -2.739024458026068e-04 0.000000000000000e+00
7.691050123777443e-06 -2.534394911752039e-04 0.000000000000000e+00
7.803219259639831e-06 -2.379807491918867e-04 0.000000000000000e+00
9.667825310639428e-07 -2.559798538880492e-04 0.000000000000000e+00
1.984737696405452e-06 -2.896271091321855e-04 0.000000000000000e+00
7.381999241949013e-06 -2.665756287784108e-04 0.000000000000000e+00
7.691050123777443e-06 -2.534394911752039e-04 0.000000000000000e+00
1.458377709128923e-06 -2.739024458026068e-04 0.000000000000000e+00
2.476358820662529e-06 -3.028433900850455e-04 0.000000000000000e+00
6.725828058076717e-06 -2.768588014310527e-04 0.000000000000000e+00
7.381999241949013e-06 -2.665756287784108e-04 0.000000000000000e+00
1.984737696405452e-06 -2.896271091321855e-04 0.000000000000000e+00
2.609538329564424e-06 -3.130460841160880e-04 0.000000000000000e+00
5.415363899788775e-06 -2.834750649980862e-04 0.000000000000000e+00
6.725828058076717e-06 -2.768588014310527e-04 0.000000000000000e+00
2.476358820662529e-06 -3.028433900850455e-04 0.000000000000000e+00
1.705607732981841e-06 -3.189555257301785e-04 0.000000000000000e+00
3.011567711180809e-06 -2.850273621721639e-04 0.000000000000000e+00
5.415363899788775e-06 -2.834750649980862e-04 0.000000000000000e+00
2.609538329564424e-06 -3.130460841160880e-04 0.000000000000000e+00
-1.092832111489230e-06 -3.178316148116229e-04 0.000000000000000e+00
-8.485035251623921e-07 -2.793106376872451e-04 0.000000000000000e+00
3.011567711180809e-06 -2.850273621721639e-04 0.000000000000000e+00
1.705607732981841e-06 -3.189555257301785e-04 0.000000000000000e+00
-6.223246193476129e-06 -3.052969418412461e-04 0.000000000000000e+00
-6.052565173073069e-06 -2.634781556676938e-04 0.000000000000000e+00
-8.485035251623921e-07 -2.793106376872451e-04 0.000000000000000e+00
-1.092832111489230e-06 -3.178316148116229e-04 0.000000000000000e+00
-1.284014781221531e-05 -2.764205981431491e-04 0.000000000000000e+00
-1.161134141870581e-05 -2.348559219658335e-04 0.000000000000000e+00
-6.052565173073069e-06 -2.634781556676938e-04 0.000000000000000e+00
-6.223246193476129e-06 -3.052969418412461e-04 0.000000000000000e+00
-1.833333556044227e-05 -2.282753712592805e-04 0.000000000000000e+00
-1.564643620143539e-05 -1.922082762952941e-04 0.000000000000000e+00
-1.161134141870581e-05 -2.348559219658335e-04 0.000000000000000e+00
-1.284014781221531e-05 -2.764205981431491e-04 0.000000000000000e+00
-1.928255440011642e-05 -1.623754420950127e-04 0.000000000000000e+00
-1.597246094778046e-05 -1.366523240220696e-04 0.000000000000000e+00
-1.564643620143539e-05 -1.922082762952941e-04 0.000000000000000e+00
-1.833333556044227e-05 -2.282753712592805e-04 0.000000000000000e+00
-1.329001260284039e-05 -8.431554411901416e-05 0.000000000000000e+00
-1.098050850151583e-05 -7.132858215361843e-05 0.000000000000000e+00
-1.597246094778046e-05 -1.366523240220696e-04 0.000000000000000e+00
-1.928255440011642e-05 -1.623754420950127e-04 0.000000000000000e+00
0.000000000000000e+00 0.000000000000000e+00 0.000000000000000e+00
0.000000000000000e+00 0.000000000000000e+00 0.000000000000000e+00
-1.098050850151583e-05 -7.132858215361843e-05 0.000000000000000e+00
-1.329001260284039e-05 -8.431554411901416e-05 0.000000000000000e+00
7.803219259639831e-06 -2.379807491918867e-04 0.000000000000000e+00
1.254857442494341e-05 -2.206608238671130e-04 0.000000000000000e+00
1.298552468761621e-05 -2.055859708838770e-04 0.000000000000000e+00
7.773313764279722e-06 -2.206418749015491e-04 0.000000000000000e+00
7.691050123777443e-06 -2.534394911752039e-04 0.000000000000000e+00
1.182541095601798e-05 -2.337846692666907e-04 0.000000000000000e+00
1.254857442494341e-05 -2.206608238671130e-04 0.000000000000000e+00
7.803219259639831e-06 -2.379807491918867e-04 0.000000000000000e+00
7.381999241949013e-06 -2.665756287784108e-04 0.000000000000000e+00
1.073220475903661e-05 -2.444567499600643e-04 0.000000000000000e+00
1.182541095601798e-05 -2.337846692666907e-04 0.000000000000000e+00
7.691050123777443e-06 -2.534394911752039e-04 0.000000000000000e+00
6.725828058076717e-06 -2.768588014310527e-04 0.000000000000000e+00
9.122451651791323e-06 -2.520463366805633e-04 0.000000000000000e+00
1.073220475903661e-05 -2.444567499600643e-04 0.000000000000000e+00
7.381999241949013e-06 -2.665756287784108e-04 0.000000000000000e+00
5.415363899788775e-06 -2.834750649980862e-04 0.000000000000000e+00
6.785081240710552e-06 -2.556750526331250e-04 0.000000000000000e+00
9.122451651791323e-06 -2.520463366805633e-04 0.000000000000000e+00
6.725828058076717e-06 -2.768588014310527e-04 0.000000000000000e+00
3.011567711180809e-06 -2.850273621721639e-04 0.000000000000000e+00
3.510716194297207e-06 -2.540925018055716e-04 0.000000000000000e+00
6.785081240710552e-06 -2.556750526331250e-04 0.000000000000000e+00
5.415363899788775e-06 -2.834750649980862e-04 0.000000000000000e+00
-8.485035251623921e-07 -2.793106376872451e-04 0.000000000000000e+00
-7.451873471297055e-07 -2.456561416715846e-04 0.000000000000000e+00
3.510716194297207e-06 -2.540925018055716e-04 0.000000000000000e+00
3.011567711180809e-06 -2.850273621721639e-04 0.000000000000000e+00
-6.052565173073069e-06 -2.634781556676938e-04 0.000000000000000e+00
-5.638967945764878e-06 -2.285542040477451e-04 0.000000000000000e+00
-7.451873471297055e-07 -2.456561416715846e-04 0.000000000000000e+00
-8.485035251623921e-07 -2.793106376872451e-04 0.000000000000000e+00
-1.161134141870581e-05 -2.348559219658335e-04 0.000000000000000e+00
-1.028640199600070e-05 -2.013176494631377e-04 0.000000000000000e+00
-5.638967945764878e-06 -2.285542040477451e-04 0.000000000000000e+00
-6.052565173073069e-06 -2.634781556676938e-04 0.000000000000000e+00
-1.564643620143539e-05 -1.922082762952941e-04 0.000000000000000e+00
-1.333873283032324e-05 -1.634495256070252e-04 0.000000000000000e+00
-1.028640199600070e-05 -2.013176494631377e-04 0.000000000000000e+00
-1.161134141870581e-05 -2.348559219658335e-04 0.000000000000000e+00
-1.597246094778046e-05 -1.366523240220696e-04 0.000000000000000e+00
-1.332994902331069e-05 -1.158021567087368e-04 0.000000000000000e+00
-1.333873283032324e-05 -1.634495256070252e-04 0.000000000000000e+00
-1.564643620143539e-05 -1.922082762952941e-04 0.000000000000000e+00
-1.098050850151583e-05 -7.132858215361843e-05 0.000000000000000e+00
-9.097649541424466e-06 -6.042183374938049e-05 0.000000000000000e+00
-1.332994902331069e-05 -1.158021567087368e-04 0.000000000000000e+00
-1.597246094778046e-05 -1.366523240220696e-04 0.000000000000000e+00
0.000000000000000e+00 0.000000000000000e+00 0.000000000000000e+00
0.000000000000000e+00 0.000000000000000e+00 0.000000000000000e+00
-9.097649541424466e-06 -6.042183374938049e-05 0.000000000000000e+00
-1.098050850151583e-05 -7.132858215361843e-05 0.000000000000000e+00
1.254857442494341e-05 -2.206608238671130e-04 0.000000000000000e+00
1.563053748369012e-05 -2.040547052196957e-04 0.000000000000000e+00
1.650733645485131e-05 -1.910841496420372e-04 0.000000000000000e+00
1.298552468761621e-05 -2.055859708838770e-04 0.000000000000000e+00
1.182541095601798e-05 -2.337846692666907e-04 0.000000000000000e+00
1.436394107388204e-05 -2.150196005247150e-04 0.000000000000000e+00
1.563053748369012e-05 -2.040547052196957e-04 0.000000000000000e+00
1.254857442494341e-05 -2.206608238671130e-04 0.000000000000000e+00
1.073220475903661e-05 -2.444567499600643e-04 0.000000000000000e+00
1.263052706285732e-05 -2.234586923421243e-04 0.000000000000000e+00
1.436394107388204e-05 -2.150196005247150e-04 0.000000000000000e+00
1.182541095601798e-05 -2.337846692666907e-04 0.000000000000000e+00
9.122451651791323e-06 -2.520463366805633e-04 0.000000000000000e+00
1.032758748379470e-05 -2.287318985462766e-04 0.000000000000000e+00
1.263052706285732e-05 -2.234586923421243e-04 0.000000000000000e+00
1.073220475903661e-05 -2.444567499600643e-04 0.000000000000000e+00
6.785081240710552e-06 -2.556750526331250e-04 0.000000000000000e+00
7.349423313039235e-06 -2.300226731673959e-04 0.000000000000000e+00
1.032758748379470e-05 -2.287318985462766e-04 0.000000000000000e+00
9.122451651791323e-06 -2.520463366805633e-04 0.000000000000000e+00
3.510716194297207e-06 -2.540925018055716e-04 0.000000000000000e+00
3.652281126409812e-06 -2.263063595792974e-04 0.000000000000000e+00
7.349423313039235e-06 -2.300226731673959e-04 0.000000000000000e+00
6.785081240710552e-06 -2.556750526331250e-04 0.000000000000000e+00
-7.451873471297055e-07 -2.456561416715846e-04 0.000000000000000e+00
-6.383417017168204e-07 -2.164022462940207e-04 0.000000000000000e+00
3.652281126409812e-06 -2.263063595792974e-04 0.000000000000000e+00
3.510716194297207e-06 -2.540925018055716e-04 0.000000000000000e+00
-5.638967945764878e-06 -2.285542040477451e-04 0.000000000000000e+00
-5.114864721438293e-06 -1.991599815091902e-04 0.000000000000000e+00
-6.383417017168204e-07 -2.164022462940207e-04 0.000000000000000e+00
-7.451873471297055e-07 -2.456561416715846e-04 0.000000000000000e+00
-1.028640199600070e-05 -2.013176494631377e-04 0.000000000000000e+00
-9.039430108286734e-06 -1.737694268245819e-04 0.000000000000000e+00