<?xml version="1.0" ?> 
<!-- 
# vtk DataFile Version 3.0
-->
<VTKFile type="UnstructuredGrid" version="0.1" compressor="vtkZLibDataCompressor" byte_order="LittleEndian">
  <UnstructuredGrid>
    <FieldData>
      <DataArray type="Float64" Name="TIME" NumberOfTuples="1" format="ascii">
6.000000000000000e+02 
      </DataArray>
    </FieldData>

    <Piece NumberOfPoints="3820" NumberOfCells="955" >
      <Points>
        <DataArray type="Float64" NumberOfComponents="3" format="ascii">
4.808326112068521e-01 4.808326112068521e-01 0.000000000000000e+00
4.879036790187176e-01 4.879036790187176e-01 0.000000000000000e+00
4.617001183876121e-01 5.127699295794018e-01 0.000000000000000e+00
4.550088123240235e-01 5.053384813246281e-01 0.000000000000000e+00
4.879036790187176e-01 4.879036790187176e-01 0.000000000000000e+00
4.949747468305831e-01 4.949747468305831e-01 0.000000000000000e+00
4.683914244512006e-01 5.202013778341755e-01 0.000000000000000e+00
4.617001183876121e-01 5.127699295794018e-01 0.000000000000000e+00
4.949747468305831e-01 4.949747468305831e-01 0.000000000000000e+00
5.020458146424486e-01 5.020458146424486e-01 0.000000000000000e+00
4.750827305147892e-01 5.276328260889497e-01 0.000000000000000e+00
4.683914244512006e-01 5.202013778341755e-01 0.000000000000000e+00
5.020458146424486e-01 5.020458146424486e-01 0.000000000000000e+00
5.091168824543140e-01 5.091168824543140e-01 0.000000000000000e+00
4.817740365783779e-01 5.350642743437237e-01 0.000000000000000e+00
4.750827305147892e-01 5.276328260889497e-01 0.000000000000000e+00
5.091168824543140e-01 5.091168824543140e-01 0.000000000000000e+00
5.161879502661796e-01 5.161879502661796e-01 0.000000000000000e+00
4.884653426419664e-01 5.424957225984977e-01 0.000000000000000e+00
4.817740365783779e-01 5.350642743437237e-01 0.000000000000000e+00
5.161879502661796e-01 5.161879502661796e-01 0.000000000000000e+00
5.232590180780450e-01 5.232590180780450e-01 0.000000000000000e+00
4.951566487055550e-01 5.499271708532714e-01 0.000000000000000e+00
4.884653426419664e-01 5.424957225984977e-01 0.000000000000000e+00
5.232590180780450e-01 5.232590180780450e-01 0.000000000000000e+00
5.303300858899104e-01 5.303300858899104e-01 0.000000000000000e+00
5.018479547691433e-01 5.573586191080454e-01 0.000000000000000e+00
4.951566487055550e-01 5.499271708532714e-01 0.000000000000000e+00
5.303300858899104e-01 5.303300858899104e-01 0.000000000000000e+00
5.374011537017759e-01 5.374011537017759e-01 0.000000000000000e+00
5.085392608327320e-01 5.647900673628193e-01 0.000000000000000e+00
5.018479547691433e-01 5.573586191080454e-01 0.000000000000000e+00
5.374011537017759e-01 5.374011537017759e-01 0.000000000000000e+00
5.444722215136414e-01 5.444722215136414e-01 0.000000000000000e+00
5.152305668963206e-01 5.722215156175933e-01 0.000000000000000e+00
5.085392608327320e-01 5.647900673628193e-01 0.000000000000000e+00
5.444722215136414e-01 5.444722215136414e-01 0.000000000000000e+00
5.515432893255069e-01 5.515432893255069e-01 0.000000000000000e+00
5.219218729599092e-01 5.796529638723673e-01 0.000000000000000e+00
5.152305668963206e-01 5.722215156175933e-01 0.000000000000000e+00
5.515432893255069e-01 5.515432893255069e-01 0.000000000000000e+00
5.586143571373723e-01 5.586143571373723e-01 0.000000000000000e+00
5.286131790234979e-01 5.870844121271411e-01 0.000000000000000e+00
5.219218729599092e-01 5.796529638723673e-01 0.000000000000000e+00
5.586143571373723e-01 5.586143571373723e-01 0.000000000000000e+00
5.656854249492378e-01 5.656854249492378e-01 0.000000000000000e+00
5.353044850870865e-01 5.945158603819153e-01 0.000000000000000e+00
5.286131790234979e-01 5.870844121271411e-01 0.000000000000000e+00
5.656854249492378e-01 5.656854249492378e-01 0.000000000000000e+00
5.727564927611033e-01 5.727564927611033e-01 0.000000000000000e+00
5.419957911506751e-01 6.019473086366893e-01 0.000000000000000e+00
5.353044850870865e-01 5.945158603819153e-01 0.000000000000000e+00
5.727564927611033e-01 5.727564927611033e-01 0.000000000000000e+00
5.798275605729688e-01 5.798275605729688e-01 0.000000000000000e+00
5.486870972142637e-01 6.093787568914633e-01 0.000000000000000e+00
5.419957911506751e-01 6.019473086366893e-01 0.000000000000000e+00
5.798275605729688e-01 5.798275605729688e-01 0.000000000000000e+00
5.868986283848342e-01 5.868986283848342e-01 0.000000000000000e+00
5.553784032778522e-01 6.168102051462370e-01 0.000000000000000e+00
5.486870972142637e-01 6.093787568914633e-01 0.000000000000000e+00
5.868986283848342e-01 5.868986283848342e-01 0.000000000000000e+00
5.939696961966997e-01 5.939696961966997e-01 0.000000000000000e+00
5.620697093414407e-01 6.242416534010107e-01 0.000000000000000e+00
5.553784032778522e-01 6.168102051462370e-01 0.000000000000000e+00
5.939696961966997e-01 5.939696961966997e-01 0.000000000000000e+00
6.010407640085651e-01 6.010407640085651e-01 0.000000000000000e+00
5.687610154050292e-01 6.316731016557846e-01 0.000000000000000e+00
5.620697093414407e-01 6.242416534010107e-01 0.000000000000000e+00
6.010407640085651e-01 6.010407640085651e-01 0.000000000000000e+00
6.081118318204307e-01 6.081118318204307e-01 0.000000000000000e+00
5.754523214686179e-01 6.391045499105587e-01 0.000000000000000e+00
5.687610154050292e-01 6.316731016557846e-01 0.000000000000000e+00
6.081118318204307e-01 6.081118318204307e-01 0.000000000000000e+00
6.151828996322961e-01 6.151828996322961e-01 0.000000000000000e+00
5.821436275322065e-01 6.465359981653327e-01 0.000000000000000e+00
5.754523214686179e-01 6.391045499105587e-01 0.000000000000000e+00
6.151828996322961e-01 6.151828996322961e-01 0.000000000000000e+00
6.222539674441616e-01 6.222539674441616e-01 0.000000000000000e+00
5.888349335957950e-01 6.539674464201066e-01 0.000000000000000e+00
5.821436275322065e-01 6.465359981653327e-01 0.000000000000000e+00
6.222539674441616e-01 6.222539674441616e-01 0.000000000000000e+00
6.293250352560270e-01 6.293250352560270e-01 0.000000000000000e+00
5.955262396593837e-01 6.613988946748806e-01 0.000000000000000e+00
5.888349335957950e-01 6.539674464201066e-01 0.000000000000000e+00
6.293250352560270e-01 6.293250352560270e-01 0.000000000000000e+00
6.363961030678926e-01 6.363961030678926e-01 0.000000000000000e+00
6.022175457229723e-01 6.688303429296548e-01 0.000000000000000e+00
5.955262396593837e-01 6.613988946748806e-01 0.000000000000000e+00
6.363961030678926e-01 6.363961030678926e-01 0.000000000000000e+00
6.434671708797580e-01 6.434671708797580e-01 0.000000000000000e+00
6.089088517865610e-01 6.762617911844283e-01 0.000000000000000e+00
6.022175457229723e-01 6.688303429296548e-01 0.000000000000000e+00
6.434671708797580e-01 6.434671708797580e-01 0.000000000000000e+00
6.505382386916235e-01 6.505382386916235e-01 0.000000000000000e+00
6.156001578501494e-01 6.836932394392025e-01 0.000000000000000e+00
6.089088517865610e-01 6.762617911844283e-01 0.000000000000000e+00
6.505382386916235e-01 6.505382386916235e-01 0.000000000000000e+00
6.576093065034889e-01 6.576093065034889e-01 0.000000000000000e+00
6.222914639137380e-01 6.911246876939762e-01 0.000000000000000e+00
6.156001578501494e-01 6.836932394392025e-01 0.000000000000000e+00
6.576093065034889e-01 6.576093065034889e-01 0.000000000000000e+00
6.646803743153545e-01 6.646803743153545e-01 0.000000000000000e+00
6.289827699773265e-01 6.985561359487501e-01 0.000000000000000e+00
6.222914639137380e-01 6.911246876939762e-01 0.000000000000000e+00
6.646803743153545e-01 6.646803743153545e-01 0.000000000000000e+00
6.717514421272199e-01 6.717514421272199e-01 0.000000000000000e+00
6.356740760409152e-01 7.059875842035243e-01 0.000000000000000e+00
6.289827699773265e-01 6.985561359487501e-01 0.000000000000000e+00
6.717514421272199e-01 6.717514421272199e-01 0.000000000000000e+00
6.788225099390854e-01 6.788225099390854e-01 0.000000000000000e+00
6.423653821045038e-01 7.134190324582982e-01 0.000000000000000e+00
6.356740760409152e-01 7.059875842035243e-01 0.000000000000000e+00
6.788225099390854e-01 6.788225099390854e-01 0.000000000000000e+00
6.858935777509508e-01 6.858935777509508e-01 0.000000000000000e+00
6.490566881680925e-01 7.208504807130721e-01 0.000000000000000e+00
6.423653821045038e-01 7.134190324582982e-01 0.000000000000000e+00
6.858935777509508e-01 6.858935777509508e-01 0.000000000000000e+00
6.929646455628163e-01 6.929646455628163e-01 0.000000000000000e+00
6.557479942316810e-01 7.282819289678460e-01 0.000000000000000e+00
6.490566881680925e-01 7.208504807130721e-01 0.000000000000000e+00
6.929646455628163e-01 6.929646455628163e-01 0.000000000000000e+00
7.000357133746818e-01 7.000357133746818e-01 0.000000000000000e+00
6.624393002952698e-01 7.357133772226200e-01 0.000000000000000e+00
6.557479942316810e-01 7.282819289678460e-01 0.000000000000000e+00
7.000357133746818e-01 7.000357133746818e-01 0.000000000000000e+00
7.071067811865475e-01 7.071067811865475e-01 0.000000000000000e+00
6.691306063588582e-01 7.431448254773941e-01 0.000000000000000e+00
6.624393002952698e-01 7.357133772226200e-01 0.000000000000000e+00
4.617001183876121e-01 5.127699295794018e-01 0.000000000000000e+00
4.683914244512006e-01 5.202013778341755e-01 0.000000000000000e+00
4.405242737348862e-01 5.440021730198799e-01 0.000000000000000e+00
4.342310698243877e-01 5.362307134053097e-01 0.000000000000000e+00
4.683914244512006e-01 5.202013778341755e-01 0.000000000000000e+00
4.750827305147892e-01 5.276328260889497e-01 0.000000000000000e+00
4.468174776453844e-01 5.517736326344492e-01 0.000000000000000e+00
4.405242737348862e-01 5.440021730198799e-01 0.000000000000000e+00
4.750827305147892e-01 5.276328260889497e-01 0.000000000000000e+00
4.817740365783779e-01 5.350642743437237e-01 0.000000000000000e+00
4.531106815558830e-01 5.595450922490189e-01 0.000000000000000e+00
4.468174776453844e-01 5.517736326344492e-01 0.000000000000000e+00
4.817740365783779e-01 5.350642743437237e-01 0.000000000000000e+00
4.884653426419664e-01 5.424957225984977e-01 0.000000000000000e+00
4.594038854663812e-01 5.673165518635886e-01 0.000000000000000e+00
4.531106815558830e-01 5.595450922490189e-01 0.000000000000000e+00
[...]
  <PointData>
        <DataArray type="Float64" Name="ale-displacement" NumberOfComponents="2" format="ascii">
2.284584323526323e-07 2.284584323575171e-07
2.229273132638970e-07 2.229273132744474e-07
2.109548347069048e-07 2.342891077062844e-07
2.161889019560385e-07 2.401021271768252e-07
2.229273132638970e-07 2.229273132744474e-07
2.176326705344636e-07 2.176326705415505e-07
2.059445435961672e-07 2.287246172861603e-07
2.109548347069048e-07 2.342891077062844e-07
2.176326705344636e-07 2.176326705415505e-07
2.125652270119319e-07 2.125652270202279e-07
2.011492498400732e-07 2.233989056638223e-07
2.059445435961672e-07 2.287246172861603e-07
2.125652270119319e-07 2.125652270202279e-07
2.077162128882575e-07 2.077162128972700e-07
1.965606547884343e-07 2.183027560268779e-07
2.011492498400732e-07 2.233989056638223e-07
2.077162128882575e-07 2.077162128972700e-07
2.030773329149760e-07 2.030773329282007e-07
1.921709087243996e-07 2.134274501753615e-07
1.965606547884343e-07 2.183027560268779e-07
2.030773329149760e-07 2.030773329282007e-07
1.986407359453677e-07 1.986407359596070e-07
1.879725824505594e-07 2.087647366334561e-07
1.921709087243996e-07 2.134274501753615e-07
1.986407359453677e-07 1.986407359596070e-07
1.943989871929949e-07 1.943989872098090e-07
1.839586404273694e-07 2.043068016474800e-07
1.879725824505594e-07 2.087647366334561e-07
1.943989871929949e-07 1.943989872098090e-07
1.903450422195642e-07 1.903450422306116e-07
1.801224165865162e-07 2.000462415649840e-07
1.839586404273694e-07 2.043068016474800e-07
1.903450422195642e-07 1.903450422306116e-07
1.864722233561689e-07 1.864722233589215e-07
1.764575921959909e-07 1.959760384103604e-07
1.801224165865162e-07 2.000462415649840e-07
1.864722233561689e-07 1.864722233589215e-07
1.827741976043007e-07 1.827741976044808e-07
1.729581742685469e-07 1.920895360853350e-07
1.764575921959909e-07 1.959760384103604e-07
1.827741976043007e-07 1.827741976044808e-07
1.792449563736639e-07 1.792449563785659e-07
1.696184770872115e-07 1.883804199059228e-07
1.729581742685469e-07 1.920895360853350e-07
1.792449563736639e-07 1.792449563785659e-07
1.758787963687258e-07 1.758787963723837e-07
1.664331037832250e-07 1.848426956417956e-07
1.696184770872115e-07 1.883804199059228e-07
1.758787963687258e-07 1.758787963723837e-07
1.726703025390614e-07 1.726703025394190e-07
1.633969302014820e-07 1.814706722046410e-07
1.664331037832250e-07 1.848426956417956e-07
1.726703025390614e-07 1.726703025394190e-07
1.696143314547847e-07 1.696143314570634e-07
1.605050891355334e-07 1.782589439597715e-07
1.633969302014820e-07 1.814706722046410e-07
1.696143314547847e-07 1.696143314570634e-07
1.667059960642484e-07 1.667059960543868e-07
1.577529562862014e-07 1.752023746488223e-07
1.605050891355334e-07 1.782589439597715e-07
1.667059960642484e-07 1.667059960543868e-07
1.639406523494385e-07 1.639406523278864e-07
1.551361368817350e-07 1.722960833691808e-07
1.577529562862014e-07 1.752023746488223e-07
1.639406523494385e-07 1.639406523278864e-07
1.613138852423484e-07 1.613138852336199e-07
1.526504532338394e-07 1.695354302117002e-07
1.551361368817350e-07 1.722960833691808e-07
1.613138852423484e-07 1.613138852336199e-07
1.588214972971864e-07 1.588214972937903e-07
1.502919332362492e-07 1.669160036066235e-07
1.526504532338394e-07 1.695354302117002e-07
1.588214972971864e-07 1.588214972937903e-07
1.564594968163389e-07 1.564594967168619e-07
1.480567998337325e-07 1.644336080985517e-07
1.502919332362492e-07 1.669160036066235e-07
1.564594968163389e-07 1.564594967168619e-07
1.542240872267298e-07 1.542240872238692e-07
1.459414605301413e-07 1.620842539724242e-07
1.480567998337325e-07 1.644336080985517e-07
1.542240872267298e-07 1.542240872238692e-07
1.521116575602765e-07 1.521116575581342e-07
1.439424979931798e-07 1.598641456221035e-07
1.459414605301413e-07 1.620842539724242e-07
1.521116575602765e-07 1.521116575581342e-07
1.501187726008252e-07 1.501187726010894e-07
1.420566619444898e-07 1.577696729915704e-07
1.439424979931798e-07 1.598641456221035e-07
1.501187726008252e-07 1.501187726010894e-07
1.482421644957725e-07 1.482421644974988e-07
1.402808599120621e-07 1.557974013937723e-07
1.420566619444898e-07 1.577696729915704e-07
1.482421644957725e-07 1.482421644974988e-07
1.464787245329482e-07 1.464787245478712e-07
1.386121503334759e-07 1.539440637760322e-07
1.402808599120621e-07 1.557974013937723e-07
1.464787245329482e-07 1.464787245478712e-07
1.448254955856507e-07 1.448254955894027e-07
1.370477350662451e-07 1.522065521615896e-07
1.386121503334759e-07 1.539440637760322e-07
1.448254955856507e-07 1.448254955894027e-07
1.432796649117973e-07 1.432796648149638e-07
1.355849522048260e-07 1.505819100617314e-07
1.370477350662451e-07 1.522065521615896e-07
1.432796649117973e-07 1.432796648149638e-07
1.418385570724371e-07 1.418385570962719e-07
1.342212705976861e-07 1.490673260258989e-07
1.355849522048260e-07 1.505819100617314e-07
1.418385570724371e-07 1.418385570962719e-07
1.404996283867201e-07 1.404996284001571e-07
1.329542828960308e-07 1.476601262584089e-07
1.342212705976861e-07 1.490673260258989e-07
1.404996283867201e-07 1.404996284001571e-07
1.392604600834872e-07 1.392604600933915e-07
1.317817003948359e-07 1.463577688280138e-07
1.329542828960308e-07 1.476601262584089e-07
1.392604600834872e-07 1.392604600933915e-07
1.381187534226066e-07 1.381187534148534e-07
1.307013479901765e-07 1.451578376053822e-07
1.317817003948359e-07 1.463577688280138e-07
1.381187534226066e-07 1.381187534148534e-07
1.370723239472498e-07 1.370723240440379e-07
1.297111587495199e-07 1.440580367323380e-07
1.307013479901765e-07 1.451578376053822e-07
1.370723239472498e-07 1.370723240440379e-07
1.361190969278079e-07 1.361190969143802e-07
1.288091691145531e-07 1.430561855784101e-07
1.297111587495199e-07 1.440580367323380e-07
2.109548347069048e-07 2.342891077062844e-07
2.059445435961672e-07 2.287246172861603e-07
1.936922047507799e-07 2.391900255288651e-07
1.984044173946481e-07 2.450091214091148e-07
2.059445435961672e-07 2.287246172861603e-07
2.011492498400732e-07 2.233989056638223e-07
1.891821986824285e-07 2.336206342571182e-07
1.936922047507799e-07 2.391900255288651e-07
2.011492498400732e-07 2.233989056638223e-07
1.965606547884343e-07 2.183027560268779e-07
1.848665943386023e-07 2.282913088119515e-07
1.891821986824285e-07 2.336206342571182e-07
1.965606547884343e-07 2.183027560268779e-07
1.921709087243996e-07 2.134274501753615e-07
1.807380092891314e-07 2.231929321104258e-07
1.848665943386023e-07 2.282913088119515e-07
1.921709087243996e-07 2.134274501753615e-07
1.879725824505594e-07 2.087647366334561e-07
1.767894562400829e-07 2.183168749580814e-07
1.807380092891314e-07 2.231929321104258e-07
1.879725824505594e-07 2.087647366334561e-07
1.839586404273694e-07 2.043068016474800e-07
1.730143184210594e-07 2.136549657871776e-07
1.767894562400829e-07 2.183168749580814e-07
1.839586404273694e-07 2.043068016474800e-07
1.801224165865162e-07 2.000462415649840e-07
1.694063265836749e-07 2.091994623243842e-07
1.730143184210594e-07 2.136549657871776e-07
1.801224165865162e-07 2.000462415649840e-07
1.764575921959909e-07 1.959760384103604e-07
1.659595377175966e-07 2.049430251305938e-07
1.694063265836749e-07 2.091994623243842e-07
1.764575921959909e-07 1.959760384103604e-07
1.729581742685469e-07 1.920895360853350e-07
1.626683157834646e-07 2.008786936811351e-07
1.659595377175966e-07 2.049430251305938e-07
1.729581742685469e-07 1.920895360853350e-07
1.696184770872115e-07 1.883804199059228e-07
1.595273131758915e-07 1.969998639194670e-07
1.626683157834646e-07 2.008786936811351e-07
1.696184770872115e-07 1.883804199059228e-07
1.664331037832250e-07 1.848426956417956e-07
1.565314543394207e-07 1.933002677195301e-07
1.595273131758915e-07 1.969998639194670e-07
1.664331037832250e-07 1.848426956417956e-07
1.633969302014820e-07 1.814706722046410e-07
1.536759200802055e-07 1.897739531202883e-07
1.565314543394207e-07 1.933002677195301e-07
1.633969302014820e-07 1.814706722046410e-07
1.605050891355334e-07 1.782589439597715e-07
1.509561326662111e-07 1.864152671315789e-07
1.536759200802055e-07 1.897739531202883e-07
1.605050891355334e-07 1.782589439597715e-07
1.577529562862014e-07 1.752023746488223e-07
1.483677430956032e-07 1.832188385643217e-07
1.509561326662111e-07 1.864152671315789e-07
1.577529562862014e-07 1.752023746488223e-07
1.551361368817350e-07 1.722960833691808e-07
1.459066181813446e-07 1.801795630232825e-07
1.483677430956032e-07 1.832188385643217e-07
1.551361368817350e-07 1.722960833691808e-07
1.526504532338394e-07 1.695354302117002e-07
1.435688288481224e-07 1.772925881102760e-07
1.459066181813446e-07 1.801795630232825e-07
1.526504532338394e-07 1.695354302117002e-07
1.502919332362492e-07 1.669160036066235e-07
1.413506394254644e-07 1.745533001568581e-07
1.435688288481224e-07 1.772925881102760e-07
1.502919332362492e-07 1.669160036066235e-07
1.480567998337325e-07 1.644336080985517e-07
1.392484975904250e-07 1.719573121582495e-07
1.413506394254644e-07 1.745533001568581e-07
1.480567998337325e-07 1.644336080985517e-07
1.459414605301413e-07 1.620842539724242e-07
1.372590245181505e-07 1.695004512604209e-07
1.392484975904250e-07 1.719573121582495e-07
1.459414605301413e-07 1.620842539724242e-07
1.439424979931798e-07 1.598641456221035e-07
1.353790067178010e-07 1.671787484643527e-07
1.372590245181505e-07 1.695004512604209e-07
1.439424979931798e-07 1.598641456221035e-07
1.420566619444898e-07 1.577696729915704e-07
1.336053868450560e-07 1.649884280717470e-07
1.353790067178010e-07 1.671787484643527e-07
1.420566619444898e-07 1.577696729915704e-07
1.402808599120621e-07 1.557974013937723e-07
1.319352568419957e-07 1.629258985120263e-07
1.336053868450560e-07 1.649884280717470e-07
1.402808599120621e-07 1.557974013937723e-07
1.386121503334759e-07 1.539440637760322e-07
1.303658500903651e-07 1.609877429415108e-07
1.319352568419957e-07 1.629258985120263e-07
1.386121503334759e-07 1.539440637760322e-07
1.370477350662451e-07 1.522065521615896e-07
1.288945350912515e-07 1.591707110752246e-07
1.303658500903651e-07 1.609877429415108e-07
1.370477350662451e-07 1.522065521615896e-07
1.355849522048260e-07 1.505819100617314e-07
1.275188083807039e-07 1.574717112607336e-07
1.288945350912515e-07 1.591707110752246e-07
1.355849522048260e-07 1.505819100617314e-07
1.342212705976861e-07 1.490673260258989e-07
1.262362895077746e-07 1.558878031330915e-07
1.275188083807039e-07 1.574717112607336e-07
1.342212705976861e-07 1.490673260258989e-07
1.329542828960308e-07 1.476601262584089e-07
1.250447143047983e-07 1.544161903526859e-07
1.262362895077746e-07 1.558878031330915e-07
1.329542828960308e-07 1.476601262584089e-07
1.317817003948359e-07 1.463577688280138e-07
1.239419305769321e-07 1.530542148702308e-07
1.250447143047983e-07 1.544161903526859e-07
1.317817003948359e-07 1.463577688280138e-07
1.307013479901765e-07 1.451578376053822e-07
1.229258925170891e-07 1.517993495919801e-07
1.239419305769321e-07 1.530542148702308e-07
1.307013479901765e-07 1.451578376053822e-07
1.297111587495199e-07 1.440580367323380e-07
1.219946563208354e-07 1.506491937048514e-07
1.229258925170891e-07 1.517993495919801e-07
1.297111587495199e-07 1.440580367323380e-07
1.288091691145531e-07 1.430561855784101e-07
1.211463755005464e-07 1.496014666597933e-07
1.219946563208354e-07 1.506491937048514e-07
1.984044173946481e-07 2.450091214091148e-07
1.936922047507799e-07 2.391900255288651e-07
1.809091523223903e-07 2.490002250767911e-07
1.853103738858455e-07 2.550579864161300e-07
1.936922047507799e-07 2.391900255288651e-07
1.891821986824285e-07 2.336206342571182e-07
1.766967924622232e-07 2.432024103240705e-07
1.809091523223903e-07 2.490002250767911e-07
1.891821986824285e-07 2.336206342571182e-07
1.848665943386023e-07 2.282913088119515e-07
1.726660047513524e-07 2.376545079648075e-07
1.766967924622232e-07 2.432024103240705e-07
1.848665943386023e-07 2.282913088119515e-07
1.807380092891314e-07 2.231929321104258e-07
1.688098939914859e-07 2.323470267035629e-07
1.726660047513524e-07 2.376545079648075e-07
1.807380092891314e-07 2.231929321104258e-07
1.767894562400829e-07 2.183168749580814e-07
1.651219342836938e-07 2.272709834223099e-07
1.688098939914859e-07 2.323470267035629e-07
1.767894562400829e-07 2.183168749580814e-07
1.730143184210594e-07 2.136549657871776e-07
1.615959455526820e-07 2.224178713525516e-07
1.651219342836938e-07 2.272709834223099e-07
1.730143184210594e-07 2.136549657871776e-07
1.694063265836749e-07 2.091994623243842e-07
1.582260724707720e-07 2.177796302844853e-07
1.615959455526820e-07 2.224178713525516e-07
1.694063265836749e-07 2.091994623243842e-07
1.659595377175966e-07 2.049430251305938e-07
1.550067643486478e-07 2.133486197723848e-07
1.582260724707720e-07 2.177796302844853e-07
1.659595377175966e-07 2.049430251305938e-07
1.626683157834646e-07 2.008786936811351e-07
1.519327570861439e-07 2.091175937707899e-07
1.550067643486478e-07 2.133486197723848e-07
1.626683157834646e-07 2.008786936811351e-07
1.595273131758915e-07 1.969998639194670e-07
1.489990562469475e-07 2.050796773672982e-07
1.519327570861439e-07 2.091175937707899e-07
1.595273131758915e-07 1.969998639194670e-07
1.565314543394207e-07 1.933002677195301e-07
1.462009212977750e-07 2.012283449724708e-07
1.489990562469475e-07 2.050796773672982e-07
1.565314543394207e-07 1.933002677195301e-07
1.536759200802055e-07 1.897739531202883e-07
1.435338510211704e-07 1.975574006738684e-07
1.462009212977750e-07 2.012283449724708e-07
1.536759200802055e-07 1.897739531202883e-07
1.509561326662111e-07 1.864152671315789e-07
1.409935701450619e-07 1.940609594404449e-07
1.435338510211704e-07 1.975574006738684e-07
1.509561326662111e-07 1.864152671315789e-07
1.483677430956032e-07 1.832188385643217e-07
1.385760166229758e-07 1.907334295999914e-07
1.409935701450619e-07 1.940609594404449e-07
1.483677430956032e-07 1.832188385643217e-07
1.459066181813446e-07 1.801795630232825e-07
1.362773301040790e-07 1.875694973789834e-07
1.385760166229758e-07 1.907334295999914e-07
1.459066181813446e-07 1.801795630232825e-07
1.435688288481224e-07 1.772925881102760e-07
1.340938410007715e-07 1.845641113439157e-07
1.362773301040790e-07 1.875694973789834e-07
1.435688288481224e-07 1.772925881102760e-07
1.413506394254644e-07 1.745533001568581e-07
1.320220602244319e-07 1.817124686118533e-07
1.340938410007715e-07 1.845641113439157e-07
1.413506394254644e-07 1.745533001568581e-07
1.392484975904250e-07 1.719573121582495e-07
1.300586699260032e-07 1.790100019297676e-07
1.320220602244319e-07 1.817124686118533e-07
1.392484975904250e-07 1.719573121582495e-07
1.372590245181505e-07 1.695004512604209e-07
1.282005143846825e-07 1.764523673850370e-07
1.300586699260032e-07 1.790100019297676e-07
1.372590245181505e-07 1.695004512604209e-07
1.353790067178010e-07 1.671787484643527e-07
1.264445922114096e-07 1.740354329670671e-07
1.282005143846825e-07 1.764523673850370e-07
1.353790067178010e-07 1.671787484643527e-07
1.336053868450560e-07 1.649884280717470e-07
1.247880481079287e-07 1.717552681272682e-07
1.264445922114096e-07 1.740354329670671e-07
1.336053868450560e-07 1.649884280717470e-07
1.319352568419957e-07 1.629258985120263e-07
1.232281659289112e-07 1.696081339438751e-07
1.247880481079287e-07 1.717552681272682e-07
1.319352568419957e-07 1.629258985120263e-07
1.303658500903651e-07 1.609877429415108e-07
1.217623618079662e-07 1.675904732793023e-07
1.232281659289112e-07 1.696081339438751e-07
1.303658500903651e-07 1.609877429415108e-07
1.288945350912515e-07 1.591707110752246e-07
1.203881777009914e-07 1.656989023664844e-07
1.217623618079662e-07 1.675904732793023e-07
1.288945350912515e-07 1.591707110752246e-07
1.275188083807039e-07 1.574717112607336e-07
1.191032758165105e-07 1.639302029007878e-07
1.203881777009914e-07 1.656989023664844e-07
1.275188083807039e-07 1.574717112607336e-07
1.262362895077746e-07 1.558878031330915e-07
1.179054326706355e-07 1.622813134498027e-07
1.191032758165105e-07 1.639302029007878e-07
1.262362895077746e-07 1.558878031330915e-07
1.250447143047983e-07 1.544161903526859e-07
1.167925338376360e-07 1.607493234662958e-07
1.179054326706355e-07 1.622813134498027e-07
1.250447143047983e-07 1.544161903526859e-07
1.239419305769321e-07 1.530542148702308e-07
1.157625689993969e-07 1.593314651300244e-07
1.167925338376360e-07 1.607493234662958e-07
1.239419305769321e-07 1.530542148702308e-07
1.229258925170891e-07 1.517993495919801e-07
1.148136277210769e-07 1.580251082116725e-07
1.157625689993969e-07 1.593314651300244e-07
1.229258925170891e-07 1.517993495919801e-07
1.219946563208354e-07 1.506491937048514e-07
1.139438942861831e-07 1.568277529293925e-07
1.148136277210769e-07 1.580251082116725e-07
1.219946563208354e-07 1.506491937048514e-07
1.211463755005464e-07 1.496014666597933e-07
1.131516445035467e-07 1.557370252042954e-07
1.139438942861831e-07 1.568277529293925e-07
1.853103738858455e-07 2.550579864161300e-07
1.809091523223903e-07 2.490002250767911e-07
1.676303319884370e-07 2.581283110583491e-07
1.717084993631169e-07 2.644081425296507e-07
1.809091523223903e-07 2.490002250767911e-07
1.766967924622232e-07 2.432024103240705e-07
1.637271637422877e-07 2.521179562173390e-07
1.676303319884370e-07 2.581283110583491e-07
1.766967924622232e-07 2.432024103240705e-07
1.726660047513524e-07 2.376545079648075e-07
1.599922402588098e-07 2.463666757084912e-07
1.637271637422877e-07 2.521179562173390e-07
1.726660047513524e-07 2.376545079648075e-07
1.688098939914859e-07 2.323470267035629e-07
1.564191726637083e-07 2.408646302551118e-07
1.599922402588098e-07 2.463666757084912e-07
1.688098939914859e-07 2.323470267035629e-07
1.651219342836938e-07 2.272709834223099e-07
1.530019141223583e-07 2.356025073884940e-07
1.564191726637083e-07 2.408646302551118e-07
1.651219342836938e-07 2.272709834223099e-07
1.615959455526820e-07 2.224178713525516e-07
1.497347383853691e-07 2.305714880422542e-07
1.530019141223583e-07 2.356025073884940e-07
1.615959455526820e-07 2.224178713525516e-07
1.582260724707720e-07 2.177796302844853e-07
1.466122199154005e-07 2.257632167643258e-07
1.497347383853691e-07 2.305714880422542e-07
1.582260724707720e-07 2.177796302844853e-07
1.550067643486478e-07 2.133486197723848e-07
1.436292156347702e-07 2.211697728433188e-07
1.466122199154005e-07 2.257632167643258e-07
1.550067643486478e-07 2.133486197723848e-07
1.519327570861439e-07 2.091175937707899e-07
1.407808479530065e-07 2.167836444422895e-07
1.436292156347702e-07 2.211697728433188e-07
1.519327570861439e-07 2.091175937707899e-07
1.489990562469475e-07 2.050796773672982e-07
1.380624890772205e-07 2.125977045228407e-07
1.407808479530065e-07 2.167836444422895e-07
1.489990562469475e-07 2.050796773672982e-07
1.462009212977750e-07 2.012283449724708e-07
1.354697465274179e-07 2.086051882916002e-07
1.380624890772205e-07 2.125977045228407e-07
1.462009212977750e-07 2.012283449724708e-07
1.435338510211704e-07 1.975574006738684e-07
1.329984495037930e-07 2.047996725377756e-07
1.354697465274179e-07 2.086051882916002e-07
1.435338510211704e-07 1.975574006738684e-07
1.409935701450619e-07 1.940609594404449e-07
1.306446367248379e-07 2.011750563692651e-07
1.329984495037930e-07 2.047996725377756e-07
1.409935701450619e-07 1.940609594404449e-07
1.385760166229758e-07 1.907334295999914e-07
1.284045443587846e-07 1.977255431111209e-07
1.306446367248379e-07 2.011750563692651e-07
1.385760166229758e-07 1.907334295999914e-07
1.362773301040790e-07 1.875694973789834e-07
1.262745955101024e-07 1.944456242178158e-07
1.284045443587846e-07 1.977255431111209e-07
1.362773301040790e-07 1.875694973789834e-07
1.340938410007715e-07 1.845641113439157e-07
1.242513899154900e-07 1.913300627432094e-07
1.262745955101024e-07 1.944456242178158e-07
1.340938410007715e-07 1.845641113439157e-07
1.320220602244319e-07 1.817124686118533e-07
1.223316948258490e-07 1.883738798949967e-07
1.242513899154900e-07 1.913300627432094e-07
1.320220602244319e-07 1.817124686118533e-07
1.300586699260032e-07 1.790100019297676e-07
1.205124358652128e-07 1.855723407886429e-07
1.223316948258490e-07 1.883738798949967e-07
1.300586699260032e-07 1.790100019297676e-07
1.282005143846825e-07 1.764523673850370e-07
1.187906891536983e-07 1.829209420799059e-07
1.205124358652128e-07 1.855723407886429e-07