<?xml version="1.0" ?> 
<!-- 
# vtk DataFile Version 3.0
-->
<VTKFile type="UnstructuredGrid" version="0.1" compressor="vtkZLibDataCompressor" byte_order="LittleEndian">
  <UnstructuredGrid>
    <FieldData>
      <DataArray type="Float64" Name="TIME" NumberOfTuples="1" format="ascii">
6.000000000000000e+02 
      </DataArray>
    </FieldData>

    <Piece NumberOfPoints="4008" NumberOfCells="1002" >
      <Points>
        <DataArray type="Float64" NumberOfComponents="3" format="ascii">
2.545584412271570e-01 2.545584412271570e-01 0.000000000000000e+00
2.616295090390225e-01 2.616295090390225e-01 0.000000000000000e+00
2.475783243527774e-01 2.749635854266358e-01 0.000000000000000e+00
2.408870182891890e-01 2.675321371718619e-01 0.000000000000000e+00
2.616295090390225e-01 2.616295090390225e-01 0.000000000000000e+00
2.687005768508879e-01 2.687005768508879e-01 0.000000000000000e+00
2.542696304163661e-01 2.823950336814097e-01 0.000000000000000e+00
2.475783243527774e-01 2.749635854266358e-01 0.000000000000000e+00
2.687005768508879e-01 2.687005768508879e-01 0.000000000000000e+00
2.757716446627534e-01 2.757716446627534e-01 0.000000000000000e+00
2.609609364799546e-01 2.898264819361837e-01 0.000000000000000e+00
2.542696304163661e-01 2.823950336814097e-01 0.000000000000000e+00
2.757716446627534e-01 2.757716446627534e-01 0.000000000000000e+00
2.828427124746189e-01 2.828427124746189e-01 0.000000000000000e+00
2.676522425435433e-01 2.972579301909576e-01 0.000000000000000e+00
2.609609364799546e-01 2.898264819361837e-01 0.000000000000000e+00
2.828427124746189e-01 2.828427124746189e-01 0.000000000000000e+00
2.899137802864844e-01 2.899137802864844e-01 0.000000000000000e+00
2.743435486071319e-01 3.046893784457316e-01 0.000000000000000e+00
2.676522425435433e-01 2.972579301909576e-01 0.000000000000000e+00
2.899137802864844e-01 2.899137802864844e-01 0.000000000000000e+00
2.969848480983499e-01 2.969848480983499e-01 0.000000000000000e+00
2.810348546707205e-01 3.121208267005055e-01 0.000000000000000e+00
2.743435486071319e-01 3.046893784457316e-01 0.000000000000000e+00
2.969848480983499e-01 2.969848480983499e-01 0.000000000000000e+00
3.040559159102154e-01 3.040559159102154e-01 0.000000000000000e+00
2.877261607343089e-01 3.195522749552794e-01 0.000000000000000e+00
2.810348546707205e-01 3.121208267005055e-01 0.000000000000000e+00
3.040559159102154e-01 3.040559159102154e-01 0.000000000000000e+00
3.111269837220808e-01 3.111269837220808e-01 0.000000000000000e+00
2.944174667978975e-01 3.269837232100534e-01 0.000000000000000e+00
2.877261607343089e-01 3.195522749552794e-01 0.000000000000000e+00
3.111269837220808e-01 3.111269837220808e-01 0.000000000000000e+00
3.181980515339463e-01 3.181980515339463e-01 0.000000000000000e+00
3.011087728614862e-01 3.344151714648272e-01 0.000000000000000e+00
2.944174667978975e-01 3.269837232100534e-01 0.000000000000000e+00
3.181980515339463e-01 3.181980515339463e-01 0.000000000000000e+00
3.252691193458118e-01 3.252691193458118e-01 0.000000000000000e+00
3.078000789250747e-01 3.418466197196012e-01 0.000000000000000e+00
3.011087728614862e-01 3.344151714648272e-01 0.000000000000000e+00
3.252691193458118e-01 3.252691193458118e-01 0.000000000000000e+00
3.323401871576773e-01 3.323401871576773e-01 0.000000000000000e+00
3.144913849886633e-01 3.492780679743752e-01 0.000000000000000e+00
3.078000789250747e-01 3.418466197196012e-01 0.000000000000000e+00
3.323401871576773e-01 3.323401871576773e-01 0.000000000000000e+00
3.394112549695427e-01 3.394112549695427e-01 0.000000000000000e+00
3.211826910522518e-01 3.567095162291490e-01 0.000000000000000e+00
3.144913849886633e-01 3.492780679743752e-01 0.000000000000000e+00
3.394112549695427e-01 3.394112549695427e-01 0.000000000000000e+00
3.464823227814082e-01 3.464823227814082e-01 0.000000000000000e+00
3.278739971158404e-01 3.641409644839231e-01 0.000000000000000e+00
3.211826910522518e-01 3.567095162291490e-01 0.000000000000000e+00
3.464823227814082e-01 3.464823227814082e-01 0.000000000000000e+00
3.535533905932737e-01 3.535533905932737e-01 0.000000000000000e+00
3.345653031794291e-01 3.715724127386972e-01 0.000000000000000e+00
3.278739971158404e-01 3.641409644839231e-01 0.000000000000000e+00
3.535533905932737e-01 3.535533905932737e-01 0.000000000000000e+00
3.606244584051391e-01 3.606244584051391e-01 0.000000000000000e+00
3.412566092430176e-01 3.790038609934711e-01 0.000000000000000e+00
3.345653031794291e-01 3.715724127386972e-01 0.000000000000000e+00
3.606244584051391e-01 3.606244584051391e-01 0.000000000000000e+00
3.676955262170046e-01 3.676955262170046e-01 0.000000000000000e+00
3.479479153066062e-01 3.864353092482449e-01 0.000000000000000e+00
3.412566092430176e-01 3.790038609934711e-01 0.000000000000000e+00
3.676955262170046e-01 3.676955262170046e-01 0.000000000000000e+00
3.747665940288701e-01 3.747665940288701e-01 0.000000000000000e+00
3.546392213701948e-01 3.938667575030187e-01 0.000000000000000e+00
3.479479153066062e-01 3.864353092482449e-01 0.000000000000000e+00
3.747665940288701e-01 3.747665940288701e-01 0.000000000000000e+00
3.818376618407356e-01 3.818376618407356e-01 0.000000000000000e+00
3.613305274337834e-01 4.012982057577927e-01 0.000000000000000e+00
3.546392213701948e-01 3.938667575030187e-01 0.000000000000000e+00
3.818376618407356e-01 3.818376618407356e-01 0.000000000000000e+00
3.889087296526010e-01 3.889087296526010e-01 0.000000000000000e+00
3.680218334973720e-01 4.087296540125668e-01 0.000000000000000e+00
3.613305274337834e-01 4.012982057577927e-01 0.000000000000000e+00
3.889087296526010e-01 3.889087296526010e-01 0.000000000000000e+00
3.959797974644664e-01 3.959797974644664e-01 0.000000000000000e+00
3.747131395609605e-01 4.161611022673405e-01 0.000000000000000e+00
3.680218334973720e-01 4.087296540125668e-01 0.000000000000000e+00
3.959797974644664e-01 3.959797974644664e-01 0.000000000000000e+00
4.030508652763319e-01 4.030508652763319e-01 0.000000000000000e+00
3.814044456245490e-01 4.235925505221145e-01 0.000000000000000e+00
3.747131395609605e-01 4.161611022673405e-01 0.000000000000000e+00
4.030508652763319e-01 4.030508652763319e-01 0.000000000000000e+00
4.101219330881974e-01 4.101219330881974e-01 0.000000000000000e+00
3.880957516881377e-01 4.310239987768885e-01 0.000000000000000e+00
3.814044456245490e-01 4.235925505221145e-01 0.000000000000000e+00
4.101219330881974e-01 4.101219330881974e-01 0.000000000000000e+00
4.171930009000628e-01 4.171930009000628e-01 0.000000000000000e+00
3.947870577517262e-01 4.384554470316623e-01 0.000000000000000e+00
3.880957516881377e-01 4.310239987768885e-01 0.000000000000000e+00
4.171930009000628e-01 4.171930009000628e-01 0.000000000000000e+00
4.242640687119283e-01 4.242640687119283e-01 0.000000000000000e+00
4.014783638153148e-01 4.458868952864363e-01 0.000000000000000e+00
3.947870577517262e-01 4.384554470316623e-01 0.000000000000000e+00
4.242640687119283e-01 4.242640687119283e-01 0.000000000000000e+00
4.313351365237938e-01 4.313351365237938e-01 0.000000000000000e+00
4.081696698789034e-01 4.533183435412103e-01 0.000000000000000e+00
4.014783638153148e-01 4.458868952864363e-01 0.000000000000000e+00
4.313351365237938e-01 4.313351365237938e-01 0.000000000000000e+00
4.384062043356592e-01 4.384062043356592e-01 0.000000000000000e+00
4.148609759424920e-01 4.607497917959841e-01 0.000000000000000e+00
4.081696698789034e-01 4.533183435412103e-01 0.000000000000000e+00
4.384062043356592e-01 4.384062043356592e-01 0.000000000000000e+00
4.454772721475247e-01 4.454772721475247e-01 0.000000000000000e+00
4.215522820060805e-01 4.681812400507581e-01 0.000000000000000e+00
4.148609759424920e-01 4.607497917959841e-01 0.000000000000000e+00
4.454772721475247e-01 4.454772721475247e-01 0.000000000000000e+00
4.525483399593902e-01 4.525483399593902e-01 0.000000000000000e+00
4.282435880696692e-01 4.756126883055322e-01 0.000000000000000e+00
4.215522820060805e-01 4.681812400507581e-01 0.000000000000000e+00
4.525483399593902e-01 4.525483399593902e-01 0.000000000000000e+00
4.596194077712557e-01 4.596194077712557e-01 0.000000000000000e+00
4.349348941332576e-01 4.830441365603060e-01 0.000000000000000e+00
4.282435880696692e-01 4.756126883055322e-01 0.000000000000000e+00
4.596194077712557e-01 4.596194077712557e-01 0.000000000000000e+00
4.666904755831212e-01 4.666904755831212e-01 0.000000000000000e+00
4.416262001968461e-01 4.904755848150799e-01 0.000000000000000e+00
4.349348941332576e-01 4.830441365603060e-01 0.000000000000000e+00
4.666904755831212e-01 4.666904755831212e-01 0.000000000000000e+00
4.737615433949867e-01 4.737615433949867e-01 0.000000000000000e+00
4.483175062604348e-01 4.979070330698538e-01 0.000000000000000e+00
4.416262001968461e-01 4.904755848150799e-01 0.000000000000000e+00
4.737615433949867e-01 4.737615433949867e-01 0.000000000000000e+00
4.808326112068521e-01 4.808326112068521e-01 0.000000000000000e+00
4.550088123240235e-01 5.053384813246281e-01 0.000000000000000e+00
4.483175062604348e-01 4.979070330698538e-01 0.000000000000000e+00
2.408870182891890e-01 2.675321371718619e-01 0.000000000000000e+00
2.475783243527774e-01 2.749635854266358e-01 0.000000000000000e+00
2.328485446884399e-01 2.875440057390792e-01 0.000000000000000e+00
2.265553407779414e-01 2.797725461245095e-01 0.000000000000000e+00
2.475783243527774e-01 2.749635854266358e-01 0.000000000000000e+00
2.542696304163661e-01 2.823950336814097e-01 0.000000000000000e+00
2.391417485989382e-01 2.953154653536489e-01 0.000000000000000e+00
2.328485446884399e-01 2.875440057390792e-01 0.000000000000000e+00
2.542696304163661e-01 2.823950336814097e-01 0.000000000000000e+00
2.609609364799546e-01 2.898264819361837e-01 0.000000000000000e+00
2.454349525094366e-01 3.030869249682187e-01 0.000000000000000e+00
2.391417485989382e-01 2.953154653536489e-01 0.000000000000000e+00
2.609609364799546e-01 2.898264819361837e-01 0.000000000000000e+00
2.676522425435433e-01 2.972579301909576e-01 0.000000000000000e+00
2.517281564199350e-01 3.108583845827884e-01 0.000000000000000e+00
2.454349525094366e-01 3.030869249682187e-01 0.000000000000000e+00
[...]
  <PointData>
        <DataArray type="Float64" Name="ale-displacement" NumberOfComponents="2" format="ascii">
6.397405208397599e-07 6.397405208434533e-07
6.139885278205559e-07 6.139885278194738e-07
5.810093917826960e-07 6.452869243929705e-07
6.053773088886876e-07 6.723528898379381e-07
6.139885278205559e-07 6.139885278194738e-07
5.898109391067090e-07 5.898109390604286e-07
5.581310970021834e-07 6.198759741043161e-07
5.810093917826960e-07 6.452869243929705e-07
5.898109391067090e-07 5.898109390604286e-07
5.670553983718402e-07 5.670553983726582e-07
5.365983109893440e-07 5.959598055824232e-07
5.581310970021834e-07 6.198759741043161e-07
5.670553983718402e-07 5.670553983726582e-07
5.455923079569650e-07 5.455923079531786e-07
5.162884365761357e-07 5.734021442614544e-07
5.365983109893440e-07 5.959598055824232e-07
5.455923079569650e-07 5.455923079531786e-07
5.253105963547224e-07 5.253105963526319e-07
4.970963961805595e-07 5.520862100170990e-07
5.162884365761357e-07 5.734021442614544e-07
5.253105963547224e-07 5.253105963526319e-07
5.061142862977014e-07 5.061142862880662e-07
4.789313877541897e-07 5.319111006758519e-07
4.970963961805595e-07 5.520862100170990e-07
5.061142862977014e-07 5.061142862880662e-07
4.879197435189026e-07 4.879197435609716e-07
4.617142843654718e-07 5.127888960135867e-07
4.789313877541897e-07 5.319111006758519e-07
4.879197435189026e-07 4.879197435609716e-07
4.706534868234567e-07 4.706534868064697e-07
4.453755630183728e-07 4.946423523666835e-07
4.617142843654718e-07 5.127888960135867e-07
4.706534868234567e-07 4.706534868064697e-07
4.542504483342341e-07 4.542504483280868e-07
4.298536596376195e-07 4.774030726634243e-07
4.453755630183728e-07 4.946423523666835e-07
4.542504483342341e-07 4.542504483280868e-07
4.386525918173321e-07 4.386525918633628e-07
4.150936622081505e-07 4.610100531497636e-07
4.298536596376195e-07 4.774030726634243e-07
4.386525918173321e-07 4.386525918633628e-07
4.238078114954489e-07 4.238078114994316e-07
4.010462690217024e-07 4.454085244859306e-07
4.150936622081505e-07 4.610100531497636e-07
4.238078114954489e-07 4.238078114994316e-07
4.096690495747714e-07 4.096690495908985e-07
3.876669543367020e-07 4.305490247498108e-07
4.010462690217024e-07 4.454085244859306e-07
4.096690495747714e-07 4.096690495908985e-07
3.961935851695304e-07 3.961935851771391e-07
3.749152953052827e-07 4.163866510117441e-07
3.876669543367020e-07 4.305490247498108e-07
3.961935851695304e-07 3.961935851771391e-07
3.833424561827706e-07 3.833424561790117e-07
3.627544254722664e-07 4.028804514767426e-07
3.749152953052827e-07 4.163866510117441e-07
3.833424561827706e-07 3.833424561790117e-07
3.710799851023545e-07 3.710799850977403e-07
3.511505859029674e-07 3.899929272274602e-07
3.627544254722664e-07 4.028804514767426e-07
3.710799851023545e-07 3.710799850977403e-07
3.593733868446441e-07 3.593733868414445e-07
3.400727543857974e-07 3.776896198310063e-07
3.511505859029674e-07 3.899929272274602e-07
3.593733868446441e-07 3.593733868414445e-07
3.481924407814067e-07 3.481924408364478e-07
3.294923350625772e-07 3.659387662446395e-07
3.400727543857974e-07 3.776896198310063e-07
3.481924407814067e-07 3.481924408364478e-07
3.375092142768342e-07 3.375092142807955e-07
3.193828968668122e-07 3.547110085069307e-07
3.294923350625772e-07 3.659387662446395e-07
3.375092142768342e-07 3.375092142807955e-07
3.272978271677155e-07 3.272978271609321e-07
3.097199507367891e-07 3.439791460397148e-07
3.193828968668122e-07 3.547110085069307e-07
3.272978271677155e-07 3.272978271609321e-07
3.175342493718833e-07 3.175342493732010e-07
3.004807583089428e-07 3.337179228283206e-07
3.097199507367891e-07 3.439791460397148e-07
3.175342493718833e-07 3.175342493732010e-07
3.081961261972469e-07 3.081961262067485e-07
2.916441662503175e-07 3.239038438287447e-07
3.004807583089428e-07 3.337179228283206e-07
3.081961261972469e-07 3.081961262067485e-07
2.992626251319795e-07 2.992626251509245e-07
2.831904616580514e-07 3.145150138913963e-07
2.916441662503175e-07 3.239038438287447e-07
2.992626251319795e-07 2.992626251509245e-07
2.907143018863929e-07 2.907143019024448e-07
2.751012451522445e-07 3.055309970356170e-07
2.831904616580514e-07 3.145150138913963e-07
2.907143018863929e-07 2.907143019024448e-07
2.825329817365222e-07 2.825329817481824e-07
2.673593186713190e-07 2.969326915578518e-07
2.751012451522445e-07 3.055309970356170e-07
2.825329817365222e-07 2.825329817481824e-07
2.747016542772936e-07 2.747016542840736e-07
2.599485857754876e-07 2.887022196063044e-07
2.673593186713190e-07 2.969326915578518e-07
2.747016542772936e-07 2.747016542840736e-07
2.672043793363533e-07 2.672043793356309e-07
2.528539628365607e-07 2.808228279990340e-07
2.599485857754876e-07 2.887022196063044e-07
2.672043793363533e-07 2.672043793356309e-07
2.600262025243506e-07 2.600262025263005e-07
2.460612989007623e-07 2.732787999547881e-07
2.528539628365607e-07 2.808228279990340e-07
2.600262025243506e-07 2.600262025263005e-07
2.531530795965548e-07 2.531530796460947e-07
2.395573044464267e-07 2.660553750431337e-07
2.460612989007623e-07 2.732787999547881e-07
2.531530795965548e-07 2.531530796460947e-07
2.465718079002568e-07 2.465718078987085e-07
2.333294859438156e-07 2.591386773227308e-07
2.395573044464267e-07 2.660553750431337e-07
2.465718079002568e-07 2.465718078987085e-07
2.402699641674243e-07 2.402699641720796e-07
2.273660876847449e-07 2.525156501326230e-07
2.333294859438156e-07 2.591386773227308e-07
2.402699641674243e-07 2.402699641720796e-07
2.342358483707590e-07 2.342358483772047e-07
2.216560382367478e-07 2.461739968874770e-07
2.273660876847449e-07 2.525156501326230e-07
2.342358483707590e-07 2.342358483772047e-07
2.284584323526323e-07 2.284584323575171e-07
2.161889019560385e-07 2.401021271768252e-07
2.216560382367478e-07 2.461739968874770e-07
6.053773088886876e-07 6.723528898379381e-07
5.810093917826960e-07 6.452869243929705e-07
5.464384917624004e-07 6.748184879540364e-07
5.693554847798401e-07 7.031243889710825e-07
5.810093917826960e-07 6.452869243929705e-07
5.581310970021834e-07 6.198759741043161e-07
5.249222130147409e-07 6.482436689282811e-07
5.464384917624004e-07 6.748184879540364e-07
5.581310970021834e-07 6.198759741043161e-07
5.365983109893440e-07 5.959598055824232e-07
5.046711936853320e-07 6.232322806451217e-07
5.249222130147409e-07 6.482436689282811e-07
5.365983109893440e-07 5.959598055824232e-07
5.162884365761357e-07 5.734021442614544e-07
4.855701844459370e-07 5.996417502248751e-07
5.046711936853320e-07 6.232322806451217e-07
5.162884365761357e-07 5.734021442614544e-07
4.970963961805595e-07 5.520862100170990e-07
4.675203952412787e-07 5.773499084909426e-07
4.855701844459370e-07 5.996417502248751e-07
4.970963961805595e-07 5.520862100170990e-07
4.789313877541897e-07 5.319111006758519e-07
4.504364514292668e-07 5.562512031115306e-07
4.675203952412787e-07 5.773499084909426e-07
4.789313877541897e-07 5.319111006758519e-07
4.617142843654718e-07 5.127888960135867e-07
4.342439518178044e-07 5.362536662954426e-07
4.504364514292668e-07 5.562512031115306e-07
4.617142843654718e-07 5.127888960135867e-07
4.453755630183728e-07 4.946423523666835e-07
4.188775230488785e-07 5.172765016166591e-07
4.342439518178044e-07 5.362536662954426e-07
4.453755630183728e-07 4.946423523666835e-07
4.298536596376195e-07 4.774030726634243e-07
4.042792740893576e-07 4.992481685597322e-07
4.188775230488785e-07 5.172765016166591e-07
4.298536596376195e-07 4.774030726634243e-07
4.150936622081505e-07 4.610100531497636e-07
3.903975677202494e-07 4.821048612549665e-07
4.042792740893576e-07 4.992481685597322e-07
4.150936622081505e-07 4.610100531497636e-07
4.010462690217024e-07 4.454085244859306e-07
3.771860417206048e-07 4.657892961206191e-07
3.903975677202494e-07 4.821048612549665e-07
4.010462690217024e-07 4.454085244859306e-07
3.876669543367020e-07 4.305490247498108e-07
3.646028242434346e-07 4.502497414808929e-07
3.771860417206048e-07 4.657892961206191e-07
3.876669543367020e-07 4.305490247498108e-07
3.749152953052827e-07 4.163866510117441e-07
3.526099013927302e-07 4.354392346574245e-07
3.646028242434346e-07 4.502497414808929e-07
3.749152953052827e-07 4.163866510117441e-07
3.627544254722664e-07 4.028804514767426e-07
3.411726032262864e-07 4.213149460396291e-07
3.526099013927302e-07 4.354392346574245e-07
3.627544254722664e-07 4.028804514767426e-07
3.511505859029674e-07 3.899929272274602e-07
3.302591820647184e-07 4.078376574997157e-07
3.411726032262864e-07 4.213149460396291e-07
3.511505859029674e-07 3.899929272274602e-07
3.400727543857974e-07 3.776896198310063e-07
3.198404633817413e-07 3.949713311563741e-07
3.302591820647184e-07 4.078376574997157e-07
3.400727543857974e-07 3.776896198310063e-07
3.294923350625772e-07 3.659387662446395e-07
3.098895545187086e-07 3.826827485230949e-07
3.198404633817413e-07 3.949713311563741e-07
3.294923350625772e-07 3.659387662446395e-07
3.193828968668122e-07 3.547110085069307e-07
3.003815982976296e-07 3.709412064578147e-07
3.098895545187086e-07 3.826827485230949e-07
3.193828968668122e-07 3.547110085069307e-07
3.097199507367891e-07 3.439791460397148e-07
2.912935639919605e-07 3.597182581539433e-07
3.003815982976296e-07 3.709412064578147e-07
3.097199507367891e-07 3.439791460397148e-07
3.004807583089428e-07 3.337179228283206e-07
2.826040670184835e-07 3.489874909010512e-07
2.912935639919605e-07 3.597182581539433e-07
3.004807583089428e-07 3.337179228283206e-07
2.916441662503175e-07 3.239038438287447e-07
2.742932134741389e-07 3.387243333716967e-07
2.826040670184835e-07 3.489874909010512e-07
2.916441662503175e-07 3.239038438287447e-07
2.831904616580514e-07 3.145150138913963e-07
2.663424640068762e-07 3.289058877988595e-07
2.742932134741389e-07 3.387243333716967e-07
2.831904616580514e-07 3.145150138913963e-07
2.751012451522445e-07 3.055309970356170e-07
2.587345145321760e-07 3.195107822268289e-07
2.663424640068762e-07 3.289058877988595e-07
2.751012451522445e-07 3.055309970356170e-07
2.673593186713190e-07 2.969326915578518e-07
2.514531907183407e-07 3.105190404687967e-07
2.587345145321760e-07 3.195107822268289e-07
2.673593186713190e-07 2.969326915578518e-07
2.599485857754876e-07 2.887022196063044e-07
2.444833543019853e-07 3.019119659364603e-07
2.514531907183407e-07 3.105190404687967e-07
2.599485857754876e-07 2.887022196063044e-07
2.528539628365607e-07 2.808228279990340e-07
2.378108194182589e-07 2.936720385144392e-07
2.444833543019853e-07 3.019119659364603e-07
2.528539628365607e-07 2.808228279990340e-07
2.460612989007623e-07 2.732787999547881e-07
2.314222774139436e-07 2.857828217053578e-07
2.378108194182589e-07 2.936720385144392e-07
2.460612989007623e-07 2.732787999547881e-07
2.395573044464267e-07 2.660553750431337e-07
2.253052296275444e-07 2.782288794859405e-07
2.314222774139436e-07 2.857828217053578e-07
2.395573044464267e-07 2.660553750431337e-07
2.333294859438156e-07 2.591386773227308e-07
2.194479261895177e-07 2.709957006496401e-07
2.253052296275444e-07 2.782288794859405e-07
2.333294859438156e-07 2.591386773227308e-07
2.273660876847449e-07 2.525156501326230e-07
2.138393109836694e-07 2.640696307214700e-07
2.194479261895177e-07 2.709957006496401e-07
2.273660876847449e-07 2.525156501326230e-07
2.216560382367478e-07 2.461739968874770e-07
2.084689714347155e-07 2.574378103875407e-07
2.138393109836694e-07 2.640696307214700e-07
2.216560382367478e-07 2.461739968874770e-07
2.161889019560385e-07 2.401021271768252e-07
2.033270929940402e-07 2.510881184705776e-07
2.084689714347155e-07 2.574378103875407e-07
2.161889019560385e-07 2.401021271768252e-07
2.109548347069048e-07 2.342891077062844e-07
1.984044173946481e-07 2.450091214091148e-07
2.033270929940402e-07 2.510881184705776e-07
5.693554847798401e-07 7.031243889710825e-07
5.464384917624004e-07 6.748184879540364e-07
5.103693967541712e-07 7.025006774131256e-07
5.317723833944682e-07 7.319684132406124e-07
5.464384917624004e-07 6.748184879540364e-07
5.249222130147409e-07 6.482436689282811e-07
4.902743105360664e-07 6.748351269504755e-07
5.103693967541712e-07 7.025006774131256e-07
5.249222130147409e-07 6.482436689282811e-07
5.046711936853320e-07 6.232322806451217e-07
4.713607128232302e-07 6.487972425942249e-07
4.902743105360664e-07 6.748351269504755e-07
5.046711936853320e-07 6.232322806451217e-07
4.855701844459370e-07 5.996417502248751e-07
4.535210309776587e-07 6.242385957605227e-07
4.713607128232302e-07 6.487972425942249e-07
4.855701844459370e-07 5.996417502248751e-07
4.675203952412787e-07 5.773499084909426e-07
4.366630439620717e-07 6.010319932309744e-07
4.535210309776587e-07 6.242385957605227e-07
4.675203952412787e-07 5.773499084909426e-07
4.504364514292668e-07 5.562512031115306e-07
4.207070465033873e-07 5.790675397795364e-07
4.366630439620717e-07 6.010319932309744e-07
4.504364514292668e-07 5.562512031115306e-07
4.342439518178044e-07 5.362536662954426e-07
4.055835729708096e-07 5.582494829527096e-07
4.207070465033873e-07 5.790675397795364e-07
4.342439518178044e-07 5.362536662954426e-07
4.188775230488785e-07 5.172765016166591e-07
3.912315831848294e-07 5.384937016854405e-07
4.055835729708096e-07 5.582494829527096e-07
4.188775230488785e-07 5.172765016166591e-07
4.042792740893576e-07 4.992481685597322e-07
3.775970207464448e-07 5.197257122787927e-07
3.912315831848294e-07 5.384937016854405e-07
4.042792740893576e-07 4.992481685597322e-07
3.903975677202494e-07 4.821048612549665e-07
3.646316672044394e-07 5.018790844268153e-07
3.775970207464448e-07 5.197257122787927e-07
3.903975677202494e-07 4.821048612549665e-07
3.771860417206048e-07 4.657892961206191e-07
3.522922283173254e-07 4.848941790320250e-07
3.646316672044394e-07 5.018790844268153e-07
3.771860417206048e-07 4.657892961206191e-07
3.646028242434346e-07 4.502497414808929e-07
3.405396023639027e-07 4.687171376196660e-07
3.522922283173254e-07 4.848941790320250e-07
3.646028242434346e-07 4.502497414808929e-07
3.526099013927302e-07 4.354392346574245e-07
3.293382893791391e-07 4.532990671504762e-07
3.405396023639027e-07 4.687171376196660e-07
3.526099013927302e-07 4.354392346574245e-07
3.411726032262864e-07 4.213149460396291e-07
3.186559117426078e-07 4.385953780353759e-07
3.293382893791391e-07 4.532990671504762e-07
3.411726032262864e-07 4.213149460396291e-07
3.302591820647184e-07 4.078376574997157e-07
3.084628203485905e-07 4.245652408786219e-07
3.186559117426078e-07 4.385953780353759e-07
3.302591820647184e-07 4.078376574997157e-07
3.198404633817413e-07 3.949713311563741e-07
2.987317689368424e-07 4.111711372933533e-07
3.084628203485905e-07 4.245652408786219e-07
3.198404633817413e-07 3.949713311563741e-07
3.098895545187086e-07 3.826827485230949e-07
2.894376418352644e-07 3.983784844806019e-07
2.987317689368424e-07 4.111711372933533e-07
3.098895545187086e-07 3.826827485230949e-07
3.003815982976296e-07 3.709412064578147e-07
2.805572243839665e-07 3.861553183513055e-07
2.894376418352644e-07 3.983784844806019e-07
3.003815982976296e-07 3.709412064578147e-07
2.912935639919605e-07 3.597182581539433e-07
2.720690072166367e-07 3.744720240409273e-07
2.805572243839665e-07 3.861553183513055e-07
2.912935639919605e-07 3.597182581539433e-07
2.826040670184835e-07 3.489874909010512e-07
2.639530185449589e-07 3.633011043923847e-07
2.720690072166367e-07 3.744720240409273e-07
2.826040670184835e-07 3.489874909010512e-07
2.742932134741389e-07 3.387243333716967e-07
2.561906783210946e-07 3.526169792582667e-07
2.639530185449589e-07 3.633011043923847e-07
2.742932134741389e-07 3.387243333716967e-07
2.663424640068762e-07 3.289058877988595e-07
2.487646716980893e-07 3.423958108761502e-07
2.561906783210946e-07 3.526169792582667e-07
2.663424640068762e-07 3.289058877988595e-07
2.587345145321760e-07 3.195107822268289e-07
2.416588374258539e-07 3.326153500841670e-07
2.487646716980893e-07 3.423958108761502e-07
2.587345145321760e-07 3.195107822268289e-07
2.514531907183407e-07 3.105190404687967e-07
2.348580693269629e-07 3.232548006788356e-07
2.416588374258539e-07 3.326153500841670e-07
2.514531907183407e-07 3.105190404687967e-07
2.444833543019853e-07 3.019119659364603e-07
2.283482286867654e-07 3.142946987898046e-07
2.348580693269629e-07 3.232548006788356e-07
2.444833543019853e-07 3.019119659364603e-07
2.378108194182589e-07 2.936720385144392e-07
2.221160663704808e-07 3.057168052001188e-07
2.283482286867654e-07 3.142946987898046e-07
2.378108194182589e-07 2.936720385144392e-07
2.314222774139436e-07 2.857828217053578e-07
2.161491525100109e-07 2.975040089435083e-07
2.221160663704808e-07 3.057168052001188e-07
2.314222774139436e-07 2.857828217053578e-07
2.253052296275444e-07 2.782288794859405e-07
2.104358136381783e-07 2.896402404084143e-07
2.161491525100109e-07 2.975040089435083e-07
2.253052296275444e-07 2.782288794859405e-07
2.194479261895177e-07 2.709957006496401e-07
2.049650757459398e-07 2.821103930178772e-07
2.104358136381783e-07 2.896402404084143e-07
2.194479261895177e-07 2.709957006496401e-07
2.138393109836694e-07 2.640696307214700e-07
1.997266125320484e-07 2.749002519180054e-07
2.049650757459398e-07 2.821103930178772e-07
2.138393109836694e-07 2.640696307214700e-07
2.084689714347155e-07 2.574378103875407e-07
1.947106990172643e-07 2.679964301454101e-07
1.997266125320484e-07 2.749002519180054e-07
2.084689714347155e-07 2.574378103875407e-07
2.033270929940402e-07 2.510881184705776e-07
1.899081684574391e-07 2.613863093297069e-07
1.947106990172643e-07 2.679964301454101e-07
2.033270929940402e-07 2.510881184705776e-07
1.984044173946481e-07 2.450091214091148e-07
1.853103738858455e-07 2.550579864161300e-07
1.899081684574391e-07 2.613863093297069e-07
5.317723833944682e-07 7.319684132406124e-07
5.103693967541712e-07 7.025006774131256e-07
4.729008076653547e-07 7.282560512131172e-07
4.927310850534347e-07 7.588040139243792e-07
5.103693967541712e-07 7.025006774131256e-07
4.902743105360664e-07 6.748351269504755e-07
4.542820764606553e-07 6.995761851771080e-07
4.729008076653547e-07 7.282560512131172e-07
4.902743105360664e-07 6.748351269504755e-07
4.713607128232302e-07 6.487972425942249e-07
4.367578342864654e-07 6.725835835486451e-07
4.542820764606553e-07 6.995761851771080e-07
4.713607128232302e-07 6.487972425942249e-07
4.535210309776587e-07 6.242385957605227e-07
4.202284653129605e-07 6.471244222663965e-07
4.367578342864654e-07 6.725835835486451e-07
4.535210309776587e-07 6.242385957605227e-07
4.366630439620717e-07 6.010319932309744e-07
4.046085647572685e-07 6.230668694698207e-07
4.202284653129605e-07 6.471244222663965e-07
4.366630439620717e-07 6.010319932309744e-07
4.207070465033873e-07 5.790675397795364e-07
3.898243140429523e-07 6.002970133000073e-07
4.046085647572685e-07 6.230668694698207e-07
4.207070465033873e-07 5.790675397795364e-07
4.055835729708096e-07 5.582494829527096e-07
3.758113740846553e-07 5.787155967649405e-07
3.898243140429523e-07 6.002970133000073e-07
4.055835729708096e-07 5.582494829527096e-07
3.912315831848294e-07 5.384937016854405e-07
3.625132064689990e-07 5.582354167839648e-07
3.758113740846553e-07 5.787155967649405e-07
3.912315831848294e-07 5.384937016854405e-07
3.775970207464448e-07 5.197257122787927e-07
3.498797391241395e-07 5.387792591278898e-07
3.625132064689990e-07 5.582354167839648e-07
3.775970207464448e-07 5.197257122787927e-07
3.646316672044394e-07 5.018790844268153e-07
3.378663057840437e-07 5.202782571932630e-07
3.498797391241395e-07 5.387792591278898e-07
3.646316672044394e-07 5.018790844268153e-07
3.522922283173254e-07 4.848941790320250e-07
3.264328002696212e-07 5.026705840838680e-07
3.378663057840437e-07 5.202782571932630e-07
3.522922283173254e-07 4.848941790320250e-07
3.405396023639027e-07 4.687171376196660e-07
3.155429989066347e-07 4.859004053734619e-07
3.264328002696212e-07 5.026705840838680e-07
3.405396023639027e-07 4.687171376196660e-07
3.293382893791391e-07 4.532990671504762e-07
3.051640140300452e-07 4.699170340004782e-07
3.155429989066347e-07 4.859004053734619e-07
3.293382893791391e-07 4.532990671504762e-07
3.186559117426078e-07 4.385953780353759e-07
2.952658496317514e-07 4.546742443097526e-07
3.051640140300452e-07 4.699170340004782e-07
3.186559117426078e-07 4.385953780353759e-07
3.084628203485905e-07 4.245652408786219e-07
2.858210371888155e-07 4.401297087179121e-07
2.952658496317514e-07 4.546742443097526e-07