<?xml version="1.0" ?> 
<!-- 
# vtk DataFile Version 3.0
-->
<VTKFile type="UnstructuredGrid" version="0.1" compressor="vtkZLibDataCompressor" byte_order="LittleEndian">
  <UnstructuredGrid>
    <FieldData>
      <DataArray type="Float64" Name="TIME" NumberOfTuples="1" format="ascii">
6.000000000000000e+02 
      </DataArray>
    </FieldData>

    <Piece NumberOfPoints="3992" NumberOfCells="998" >
      <Points>
        <DataArray type="Float64" NumberOfComponents="3" format="ascii">
0.000000000000000e+00 0.000000000000000e+00 0.000000000000000e+00
5.000000000000000e-03 0.000000000000000e+00 0.000000000000000e+00
5.000000000000000e-03 5.000000000000002e-03 0.000000000000000e+00
0.000000000000000e+00 5.000000000000000e-03 0.000000000000000e+00
5.000000000000000e-03 0.000000000000000e+00 0.000000000000000e+00
1.000000000000000e-02 0.000000000000000e+00 0.000000000000000e+00
1.000000000000000e-02 4.999999999999999e-03 0.000000000000000e+00
5.000000000000000e-03 5.000000000000002e-03 0.000000000000000e+00
1.000000000000000e-02 0.000000000000000e+00 0.000000000000000e+00
1.500000000000000e-02 0.000000000000000e+00 0.000000000000000e+00
1.500000000000000e-02 5.000000000000000e-03 0.000000000000000e+00
1.000000000000000e-02 4.999999999999999e-03 0.000000000000000e+00
1.500000000000000e-02 0.000000000000000e+00 0.000000000000000e+00
2.000000000000000e-02 0.000000000000000e+00 0.000000000000000e+00
2.000000000000000e-02 5.000000000000002e-03 0.000000000000000e+00
1.500000000000000e-02 5.000000000000000e-03 0.000000000000000e+00
2.000000000000000e-02 0.000000000000000e+00 0.000000000000000e+00
2.500000000000000e-02 0.000000000000000e+00 0.000000000000000e+00
2.500000000000000e-02 5.000000000000000e-03 0.000000000000000e+00
2.000000000000000e-02 5.000000000000002e-03 0.000000000000000e+00
2.500000000000000e-02 0.000000000000000e+00 0.000000000000000e+00
3.000000000000000e-02 0.000000000000000e+00 0.000000000000000e+00
3.000000000000000e-02 5.000000000000000e-03 0.000000000000000e+00
2.500000000000000e-02 5.000000000000000e-03 0.000000000000000e+00
3.000000000000000e-02 0.000000000000000e+00 0.000000000000000e+00
3.500000000000000e-02 0.000000000000000e+00 0.000000000000000e+00
3.500000000000000e-02 5.000000000000000e-03 0.000000000000000e+00
3.000000000000000e-02 5.000000000000000e-03 0.000000000000000e+00
3.500000000000000e-02 0.000000000000000e+00 0.000000000000000e+00
4.000000000000000e-02 0.000000000000000e+00 0.000000000000000e+00
4.000000000000000e-02 5.000000000000000e-03 0.000000000000000e+00
3.500000000000000e-02 5.000000000000000e-03 0.000000000000000e+00
4.000000000000000e-02 0.000000000000000e+00 0.000000000000000e+00
4.500000000000000e-02 0.000000000000000e+00 0.000000000000000e+00
4.500000000000001e-02 5.000000000000000e-03 0.000000000000000e+00
4.000000000000000e-02 5.000000000000000e-03 0.000000000000000e+00
4.500000000000000e-02 0.000000000000000e+00 0.000000000000000e+00
5.000000000000000e-02 0.000000000000000e+00 0.000000000000000e+00
5.000000000000000e-02 5.000000000000001e-03 0.000000000000000e+00
4.500000000000001e-02 5.000000000000000e-03 0.000000000000000e+00
5.000000000000000e-02 0.000000000000000e+00 0.000000000000000e+00
5.500000000000000e-02 0.000000000000000e+00 0.000000000000000e+00
5.500000000000001e-02 5.000000000000000e-03 0.000000000000000e+00
5.000000000000000e-02 5.000000000000001e-03 0.000000000000000e+00
5.500000000000000e-02 0.000000000000000e+00 0.000000000000000e+00
6.000000000000000e-02 0.000000000000000e+00 0.000000000000000e+00
6.000000000000000e-02 5.000000000000000e-03 0.000000000000000e+00
5.500000000000001e-02 5.000000000000000e-03 0.000000000000000e+00
6.000000000000000e-02 0.000000000000000e+00 0.000000000000000e+00
6.500000000000000e-02 0.000000000000000e+00 0.000000000000000e+00
6.500000000000002e-02 5.000000000000000e-03 0.000000000000000e+00
6.000000000000000e-02 5.000000000000000e-03 0.000000000000000e+00
6.500000000000000e-02 0.000000000000000e+00 0.000000000000000e+00
7.000000000000001e-02 0.000000000000000e+00 0.000000000000000e+00
6.999999999999999e-02 4.999999999999999e-03 0.000000000000000e+00
6.500000000000002e-02 5.000000000000000e-03 0.000000000000000e+00
7.000000000000001e-02 0.000000000000000e+00 0.000000000000000e+00
7.500000000000000e-02 0.000000000000000e+00 0.000000000000000e+00
7.500000000000000e-02 5.000000000000000e-03 0.000000000000000e+00
6.999999999999999e-02 4.999999999999999e-03 0.000000000000000e+00
0.000000000000000e+00 5.000000000000000e-03 0.000000000000000e+00
5.000000000000000e-03 5.000000000000002e-03 0.000000000000000e+00
4.999999999999999e-03 1.000000000000000e-02 0.000000000000000e+00
0.000000000000000e+00 1.000000000000000e-02 0.000000000000000e+00
5.000000000000000e-03 5.000000000000002e-03 0.000000000000000e+00
1.000000000000000e-02 4.999999999999999e-03 0.000000000000000e+00
9.999999999999998e-03 9.999999999999998e-03 0.000000000000000e+00
4.999999999999999e-03 1.000000000000000e-02 0.000000000000000e+00
1.000000000000000e-02 4.999999999999999e-03 0.000000000000000e+00
1.500000000000000e-02 5.000000000000000e-03 0.000000000000000e+00
1.500000000000000e-02 1.000000000000000e-02 0.000000000000000e+00
9.999999999999998e-03 9.999999999999998e-03 0.000000000000000e+00
1.500000000000000e-02 5.000000000000000e-03 0.000000000000000e+00
2.000000000000000e-02 5.000000000000002e-03 0.000000000000000e+00
2.000000000000000e-02 1.000000000000000e-02 0.000000000000000e+00
1.500000000000000e-02 1.000000000000000e-02 0.000000000000000e+00
2.000000000000000e-02 5.000000000000002e-03 0.000000000000000e+00
2.500000000000000e-02 5.000000000000000e-03 0.000000000000000e+00
2.500000000000000e-02 1.000000000000000e-02 0.000000000000000e+00
2.000000000000000e-02 1.000000000000000e-02 0.000000000000000e+00
2.500000000000000e-02 5.000000000000000e-03 0.000000000000000e+00
3.000000000000000e-02 5.000000000000000e-03 0.000000000000000e+00
3.000000000000000e-02 1.000000000000000e-02 0.000000000000000e+00
2.500000000000000e-02 1.000000000000000e-02 0.000000000000000e+00
3.000000000000000e-02 5.000000000000000e-03 0.000000000000000e+00
3.500000000000000e-02 5.000000000000000e-03 0.000000000000000e+00
3.500000000000001e-02 1.000000000000000e-02 0.000000000000000e+00
3.000000000000000e-02 1.000000000000000e-02 0.000000000000000e+00
3.500000000000000e-02 5.000000000000000e-03 0.000000000000000e+00
4.000000000000000e-02 5.000000000000000e-03 0.000000000000000e+00
3.999999999999999e-02 1.000000000000000e-02 0.000000000000000e+00
3.500000000000001e-02 1.000000000000000e-02 0.000000000000000e+00
4.000000000000000e-02 5.000000000000000e-03 0.000000000000000e+00
4.500000000000001e-02 5.000000000000000e-03 0.000000000000000e+00
4.500000000000000e-02 1.000000000000000e-02 0.000000000000000e+00
3.999999999999999e-02 1.000000000000000e-02 0.000000000000000e+00
4.500000000000001e-02 5.000000000000000e-03 0.000000000000000e+00
5.000000000000000e-02 5.000000000000001e-03 0.000000000000000e+00
5.000000000000001e-02 1.000000000000000e-02 0.000000000000000e+00
4.500000000000000e-02 1.000000000000000e-02 0.000000000000000e+00
5.000000000000000e-02 5.000000000000001e-03 0.000000000000000e+00
5.500000000000001e-02 5.000000000000000e-03 0.000000000000000e+00
5.500000000000000e-02 1.000000000000000e-02 0.000000000000000e+00
5.000000000000001e-02 1.000000000000000e-02 0.000000000000000e+00
5.500000000000001e-02 5.000000000000000e-03 0.000000000000000e+00
6.000000000000000e-02 5.000000000000000e-03 0.000000000000000e+00
6.000000000000000e-02 1.000000000000000e-02 0.000000000000000e+00
5.500000000000000e-02 1.000000000000000e-02 0.000000000000000e+00
6.000000000000000e-02 5.000000000000000e-03 0.000000000000000e+00
6.500000000000002e-02 5.000000000000000e-03 0.000000000000000e+00
6.499999999999999e-02 1.000000000000000e-02 0.000000000000000e+00
6.000000000000000e-02 1.000000000000000e-02 0.000000000000000e+00
6.500000000000002e-02 5.000000000000000e-03 0.000000000000000e+00
6.999999999999999e-02 4.999999999999999e-03 0.000000000000000e+00
7.000000000000002e-02 9.999999999999998e-03 0.000000000000000e+00
6.499999999999999e-02 1.000000000000000e-02 0.000000000000000e+00
6.999999999999999e-02 4.999999999999999e-03 0.000000000000000e+00
7.500000000000000e-02 5.000000000000000e-03 0.000000000000000e+00
7.500000000000000e-02 1.000000000000000e-02 0.000000000000000e+00
7.000000000000002e-02 9.999999999999998e-03 0.000000000000000e+00
0.000000000000000e+00 1.000000000000000e-02 0.000000000000000e+00
4.999999999999999e-03 1.000000000000000e-02 0.000000000000000e+00
5.000000000000000e-03 1.500000000000000e-02 0.000000000000000e+00
0.000000000000000e+00 1.500000000000000e-02 0.000000000000000e+00
4.999999999999999e-03 1.000000000000000e-02 0.000000000000000e+00
9.999999999999998e-03 9.999999999999998e-03 0.000000000000000e+00
1.000000000000000e-02 1.500000000000000e-02 0.000000000000000e+00
5.000000000000000e-03 1.500000000000000e-02 0.000000000000000e+00
9.999999999999998e-03 9.999999999999998e-03 0.000000000000000e+00
1.500000000000000e-02 1.000000000000000e-02 0.000000000000000e+00
1.500000000000000e-02 1.500000000000000e-02 0.000000000000000e+00
1.000000000000000e-02 1.500000000000000e-02 0.000000000000000e+00
1.500000000000000e-02 1.000000000000000e-02 0.000000000000000e+00
2.000000000000000e-02 1.000000000000000e-02 0.000000000000000e+00
2.000000000000000e-02 1.500000000000000e-02 0.000000000000000e+00
1.500000000000000e-02 1.500000000000000e-02 0.000000000000000e+00
2.000000000000000e-02 1.000000000000000e-02 0.000000000000000e+00
2.500000000000000e-02 1.000000000000000e-02 0.000000000000000e+00
2.500000000000000e-02 1.500000000000000e-02 0.000000000000000e+00
2.000000000000000e-02 1.500000000000000e-02 0.000000000000000e+00
2.500000000000000e-02 1.000000000000000e-02 0.000000000000000e+00
3.000000000000000e-02 1.000000000000000e-02 0.000000000000000e+00
3.000000000000000e-02 1.500000000000000e-02 0.000000000000000e+00
2.500000000000000e-02 1.500000000000000e-02 0.000000000000000e+00
[...]
  <PointData>
        <DataArray type="Float64" Name="ale-displacement" NumberOfComponents="2" format="ascii">
0.000000000000000e+00 0.000000000000000e+00
2.177329028704260e-08 0.000000000000000e+00
2.177364237847228e-08 2.177364237844780e-08
0.000000000000000e+00 2.177329028706574e-08
2.177329028704260e-08 0.000000000000000e+00
4.354866225942781e-08 0.000000000000000e+00
4.354936604753223e-08 2.177469789643846e-08
2.177364237847228e-08 2.177364237844780e-08
4.354866225942781e-08 0.000000000000000e+00
6.532819373933676e-08 0.000000000000000e+00
6.532924841176485e-08 2.177645455311451e-08
4.354936604753223e-08 2.177469789643846e-08
6.532819373933676e-08 0.000000000000000e+00
8.711395476588539e-08 0.000000000000000e+00
8.711535904511677e-08 2.177890845422884e-08
6.532924841176485e-08 2.177645455311451e-08
8.711395476588539e-08 0.000000000000000e+00
1.089080035187629e-07 0.000000000000000e+00
1.089097555932827e-07 2.178205399433381e-08
8.711535904511677e-08 2.177890845422884e-08
1.089080035187629e-07 0.000000000000000e+00
1.307123820248149e-07 0.000000000000000e+00
1.307144794737680e-07 2.178588372438549e-08
1.089097555932827e-07 2.178205399433381e-08
1.307123820248149e-07 0.000000000000000e+00
1.525291115302340e-07 0.000000000000000e+00
1.525315512254059e-07 2.179038821100803e-08
1.307144794737680e-07 2.178588372438549e-08
1.525291115302340e-07 0.000000000000000e+00
1.743601873725256e-07 0.000000000000000e+00
1.743629653827932e-07 2.179555592416119e-08
1.525315512254059e-07 2.179038821100803e-08
1.743601873725256e-07 0.000000000000000e+00
1.962075732215988e-07 0.000000000000000e+00
1.962106847511830e-07 2.180137316616120e-08
1.743629653827932e-07 2.179555592416119e-08
1.962075732215988e-07 0.000000000000000e+00
2.180731943599828e-07 0.000000000000000e+00
2.180766336913056e-07 2.180782411330240e-08
1.962106847511830e-07 2.180137316616120e-08
2.180731943599828e-07 0.000000000000000e+00
2.399589298638219e-07 0.000000000000000e+00
2.399626903444725e-07 2.181489096587110e-08
2.180766336913056e-07 2.180782411330240e-08
2.399589298638219e-07 0.000000000000000e+00
2.618666031947797e-07 0.000000000000000e+00
2.618706772785817e-07 2.182255424332809e-08
2.399626903444725e-07 2.181489096587110e-08
2.618666031947797e-07 0.000000000000000e+00
2.837979709806003e-07 0.000000000000000e+00
2.838023502804272e-07 2.183079319996537e-08
2.618706772785817e-07 2.182255424332809e-08
2.837979709806003e-07 0.000000000000000e+00
3.057547094638857e-07 0.000000000000000e+00
3.057593848534202e-07 2.183958634485079e-08
2.838023502804272e-07 2.183079319996537e-08
3.057547094638857e-07 0.000000000000000e+00
3.277383984735081e-07 0.000000000000000e+00
3.277433601555987e-07 2.184891195823033e-08
3.057593848534202e-07 2.183958634485079e-08
0.000000000000000e+00 2.177329028706574e-08
2.177364237847228e-08 2.177364237844780e-08
2.177469789666382e-08 4.354936604679987e-08
0.000000000000000e+00 4.354866225914497e-08
2.177364237847228e-08 2.177364237844780e-08
4.354936604753223e-08 2.177469789643846e-08
4.355147591356758e-08 4.355147591311591e-08
2.177469789666382e-08 4.354936604679987e-08
4.354936604753223e-08 2.177469789643846e-08
6.532924841176485e-08 2.177645455311451e-08
6.533241021200164e-08 4.355498731451423e-08
4.355147591356758e-08 4.355147591311591e-08
6.532924841176485e-08 2.177645455311451e-08
8.711535904511677e-08 2.177890845422884e-08
8.711956898272128e-08 4.355989251903041e-08
6.533241021200164e-08 4.355498731451423e-08
8.711535904511677e-08 2.177890845422884e-08
1.089097555932827e-07 2.178205399433381e-08
1.089150082906555e-07 4.356618038264965e-08
8.711956898272128e-08 4.355989251903041e-08
1.089097555932827e-07 2.178205399433381e-08
1.307144794737680e-07 2.178588372438549e-08
1.307207677078162e-07 4.357383607402713e-08
1.089150082906555e-07 4.356618038264965e-08
1.307144794737680e-07 2.178588372438549e-08
1.525315512254059e-07 2.179038821100803e-08
1.525388656627095e-07 4.358284076825167e-08
1.307207677078162e-07 4.357383607402713e-08
1.525315512254059e-07 2.179038821100803e-08
1.743629653827932e-07 2.179555592416119e-08
1.743712942903024e-07 4.359317138898961e-08
1.525388656627095e-07 4.358284076825167e-08
1.743629653827932e-07 2.179555592416119e-08
1.962106847511830e-07 2.180137316616120e-08
1.962200137517615e-07 4.360480045709394e-08
1.743712942903024e-07 4.359317138898961e-08
1.962106847511830e-07 2.180137316616120e-08
2.180766336913056e-07 2.180782411330240e-08
2.180869456155220e-07 4.361769612037523e-08
1.962200137517615e-07 4.360480045709394e-08
2.180766336913056e-07 2.180782411330240e-08
2.399626903444725e-07 2.181489096587110e-08
2.399739651946646e-07 4.363182243838302e-08
2.180869456155220e-07 4.361769612037523e-08
2.399626903444725e-07 2.181489096587110e-08
2.618706772785817e-07 2.182255424332809e-08
2.618828923150558e-07 4.364713997794804e-08
2.399739651946646e-07 4.363182243838302e-08
2.618706772785817e-07 2.182255424332809e-08
2.838023502804272e-07 2.183079319996537e-08
2.838154802168917e-07 4.366360667025069e-08
2.618828923150558e-07 4.364713997794804e-08
2.838023502804272e-07 2.183079319996537e-08
3.057593848534202e-07 2.183958634485079e-08
3.057734021543733e-07 4.368117888186417e-08
2.838154802168917e-07 4.366360667025069e-08
3.057593848534202e-07 2.183958634485079e-08
3.277433601555987e-07 2.184891195823033e-08
3.277582352484692e-07 4.369981251594988e-08
3.057734021543733e-07 4.368117888186417e-08
0.000000000000000e+00 4.354866225914497e-08
2.177469789666382e-08 4.354936604679987e-08
2.177645455208015e-08 6.532924841225107e-08
0.000000000000000e+00 6.532819373990607e-08
2.177469789666382e-08 4.354936604679987e-08
4.355147591356758e-08 4.355147591311591e-08
4.355498731501298e-08 6.533241021390708e-08
2.177645455208015e-08 6.532924841225107e-08
4.355147591356758e-08 4.355147591311591e-08
6.533241021200164e-08 4.355498731451423e-08
6.533767241556912e-08 6.533767241594262e-08
4.355498731501298e-08 6.533241021390708e-08
6.533241021200164e-08 4.355498731451423e-08
8.711956898272128e-08 4.355989251903041e-08
8.712657578163900e-08 6.534502356698964e-08
6.533767241556912e-08 6.533767241594262e-08
8.711956898272128e-08 4.355989251903041e-08
1.089150082906555e-07 4.356618038264965e-08
1.089237508739668e-07 6.535444712069219e-08
8.712657578163900e-08 6.534502356698964e-08
1.089150082906555e-07 4.356618038264965e-08
1.307207677078162e-07 4.357383607402713e-08
1.307312342267097e-07 6.536592100127551e-08
1.089237508739668e-07 6.535444712069219e-08
1.307207677078162e-07 4.357383607402713e-08
1.525388656627095e-07 4.358284076825167e-08
1.525510407324742e-07 6.537941709109259e-08
1.307312342267097e-07 6.536592100127551e-08
1.525388656627095e-07 4.358284076825167e-08
1.743712942903024e-07 4.359317138898961e-08
1.743851585162565e-07 6.539490077833165e-08
1.525510407324742e-07 6.537941709109259e-08
1.743712942903024e-07 4.359317138898961e-08
1.962200137517615e-07 4.360480045709394e-08
1.962355432460641e-07 6.541233064142624e-08
1.743851585162565e-07 6.539490077833165e-08
1.962200137517615e-07 4.360480045709394e-08
2.180869456155220e-07 4.361769612037523e-08
2.181041117409344e-07 6.543165841085933e-08
1.962355432460641e-07 6.541233064142624e-08
2.180869456155220e-07 4.361769612037523e-08
2.399739651946646e-07 4.363182243838302e-08
2.399927344331846e-07 6.545282934040818e-08
2.181041117409344e-07 6.543165841085933e-08
2.399739651946646e-07 4.363182243838302e-08
2.618828923150558e-07 4.364713997794804e-08
2.619032264495291e-07 6.547578308519198e-08
2.399927344331846e-07 6.545282934040818e-08
2.618828923150558e-07 4.364713997794804e-08
2.838154802168917e-07 4.366360667025069e-08
2.838373366881888e-07 6.550045505867604e-08
2.619032264495291e-07 6.547578308519198e-08
2.838154802168917e-07 4.366360667025069e-08
3.057734021543733e-07 4.368117888186417e-08
3.057967345254568e-07 6.552677814769308e-08
2.838373366881888e-07 6.550045505867604e-08
3.057734021543733e-07 4.368117888186417e-08
3.277582352484692e-07 4.369981251594988e-08
3.277829937073780e-07 6.555468453664732e-08
3.057967345254568e-07 6.552677814769308e-08
0.000000000000000e+00 6.532819373990607e-08
2.177645455208015e-08 6.532924841225107e-08
2.177890845362590e-08 8.711535904387058e-08
0.000000000000000e+00 8.711395476529883e-08
2.177645455208015e-08 6.532924841225107e-08
4.355498731501298e-08 6.533241021390708e-08
4.355989251800038e-08 8.711956898338598e-08
2.177890845362590e-08 8.711535904387058e-08
4.355498731501298e-08 6.533241021390708e-08
6.533767241556912e-08 6.533767241594262e-08
6.534502356571545e-08 8.712657578186306e-08
4.355989251800038e-08 8.711956898338598e-08
6.533767241556912e-08 6.533767241594262e-08
8.712657578163900e-08 6.534502356698964e-08
8.713636443502914e-08 8.713636443524945e-08
6.534502356571545e-08 8.712657578186306e-08
8.712657578163900e-08 6.534502356698964e-08
1.089237508739668e-07 6.535444712069219e-08
1.089359650127715e-07 8.714891321443933e-08
8.713636443502914e-08 8.713636443524945e-08
1.089237508739668e-07 6.535444712069219e-08
1.307312342267097e-07 6.536592100127551e-08
1.307458576393759e-07 8.716419303109546e-08
1.089359650127715e-07 8.714891321443933e-08
1.307312342267097e-07 6.536592100127551e-08
1.525510407324742e-07 6.537941709109259e-08
1.525680522965903e-07 8.718216667144736e-08
1.307458576393759e-07 8.716419303109546e-08
1.525510407324742e-07 6.537941709109259e-08
1.743851585162565e-07 6.539490077833165e-08
1.744045313969297e-07 8.720278804735998e-08
1.525680522965903e-07 8.718216667144736e-08
1.743851585162565e-07 6.539490077833165e-08
1.962355432460641e-07 6.541233064142624e-08
1.962572442298998e-07 8.722600163305828e-08
1.744045313969297e-07 8.720278804735998e-08
1.962355432460641e-07 6.541233064142624e-08
2.181041117409344e-07 6.543165841085933e-08
2.181281006993185e-07 8.725174221699962e-08
1.962572442298998e-07 8.722600163305828e-08
2.181041117409344e-07 6.543165841085933e-08
2.399927344331846e-07 6.545282934040818e-08
2.400189641075049e-07 8.727993526545749e-08
2.181281006993185e-07 8.725174221699962e-08
2.399927344331846e-07 6.545282934040818e-08
2.619032264495291e-07 6.547578308519198e-08
2.619316426460228e-07 8.731049806709536e-08
2.400189641075049e-07 8.727993526545749e-08
2.619032264495291e-07 6.547578308519198e-08
2.838373366881888e-07 6.550045505867604e-08
2.838678788613533e-07 8.734334162719830e-08
2.619316426460228e-07 8.731049806709536e-08
2.838373366881888e-07 6.550045505867604e-08
3.057967345254568e-07 6.552677814769308e-08
3.058293365808124e-07 8.737837325131426e-08
2.838678788613533e-07 8.734334162719830e-08
3.057967345254568e-07 6.552677814769308e-08
3.277829937073780e-07 6.555468453664732e-08
3.278175847616565e-07 8.741549928105262e-08
3.058293365808124e-07 8.737837325131426e-08
0.000000000000000e+00 8.711395476529883e-08
2.177890845362590e-08 8.711535904387058e-08
2.178205399388606e-08 1.089097555955369e-07
0.000000000000000e+00 1.089080035171273e-07
2.177890845362590e-08 8.711535904387058e-08
4.355989251800038e-08 8.711956898338598e-08
4.356618038159540e-08 1.089150082912832e-07
2.178205399388606e-08 1.089097555955369e-07
4.355989251800038e-08 8.711956898338598e-08
6.534502356571545e-08 8.712657578186306e-08
6.535444712089524e-08 1.089237508754883e-07
4.356618038159540e-08 1.089150082912832e-07
6.534502356571545e-08 8.712657578186306e-08
8.713636443502914e-08 8.713636443524945e-08
8.714891321360193e-08 1.089359650124077e-07
6.535444712089524e-08 1.089237508754883e-07
8.713636443502914e-08 8.713636443524945e-08
1.089359650127715e-07 8.714891321443933e-08
1.089516241002610e-07 1.089516241018518e-07
8.714891321360193e-08 1.089359650124077e-07
1.089359650127715e-07 8.714891321443933e-08
1.307458576393759e-07 8.716419303109546e-08
1.307646068550194e-07 1.089706923889285e-07
1.089516241002610e-07 1.089516241018518e-07
1.307458576393759e-07 8.716419303109546e-08
1.525680522965903e-07 8.718216667144736e-08
1.525898651804277e-07 1.089931238842308e-07
1.307646068550194e-07 1.089706923889285e-07
1.525680522965903e-07 8.718216667144736e-08
1.744045313969297e-07 8.720278804735998e-08
1.744293741339522e-07 1.090188612376498e-07
1.525898651804277e-07 1.089931238842308e-07
1.744045313969297e-07 8.720278804735998e-08
1.962572442298998e-07 8.722600163305828e-08
1.962850745691082e-07 1.090478347236248e-07
1.744293741339522e-07 1.090188612376498e-07
1.962572442298998e-07 8.722600163305828e-08
2.181281006993185e-07 8.725174221699962e-08
2.181588670727791e-07 1.090799616234531e-07
1.962850745691082e-07 1.090478347236248e-07
2.181281006993185e-07 8.725174221699962e-08
2.400189641075049e-07 8.727993526545749e-08
2.400526052358895e-07 1.091151463936441e-07
2.181588670727791e-07 1.090799616234531e-07
2.400189641075049e-07 8.727993526545749e-08
2.619316426460228e-07 8.731049806709536e-08
2.619680877009272e-07 1.091532819416644e-07
2.400526052358895e-07 1.091151463936441e-07
2.619316426460228e-07 8.731049806709536e-08
2.838678788613533e-07 8.734334162719830e-08
2.839070483056032e-07 1.091942522074223e-07
2.619680877009272e-07 1.091532819416644e-07
2.838678788613533e-07 8.734334162719830e-08
3.058293365808124e-07 8.737837325131426e-08
3.058711434474976e-07 1.092379358348120e-07
2.839070483056032e-07 1.091942522074223e-07
3.058293365808124e-07 8.737837325131426e-08
3.278175847616565e-07 8.741549928105262e-08
3.278619358630340e-07 1.092842102949090e-07
3.058711434474976e-07 1.092379358348120e-07
0.000000000000000e+00 1.089080035171273e-07
2.178205399388606e-08 1.089097555955369e-07
2.178588372360474e-08 1.307144794748344e-07
0.000000000000000e+00 1.307123820255699e-07
2.178205399388606e-08 1.089097555955369e-07
4.356618038159540e-08 1.089150082912832e-07
4.357383607273978e-08 1.307207677110385e-07
2.178588372360474e-08 1.307144794748344e-07
4.356618038159540e-08 1.089150082912832e-07
6.535444712089524e-08 1.089237508754883e-07
6.536592100004184e-08 1.307312342270462e-07
4.357383607273978e-08 1.307207677110385e-07
6.535444712089524e-08 1.089237508754883e-07
8.714891321360193e-08 1.089359650124077e-07
8.716419303208590e-08 1.307458576414027e-07
6.536592100004184e-08 1.307312342270462e-07
8.714891321360193e-08 1.089359650124077e-07
1.089516241002610e-07 1.089516241018518e-07
1.089706923886116e-07 1.307646068551003e-07
8.716419303208590e-08 1.307458576414027e-07
1.089516241002610e-07 1.089516241018518e-07
1.307646068550194e-07 1.089706923889285e-07
1.307874399220603e-07 1.307874399216836e-07
1.089706923886116e-07 1.307646068551003e-07
1.307646068550194e-07 1.089706923889285e-07
1.525898651804277e-07 1.089931238842308e-07
1.526164318332624e-07 1.308143025921028e-07
1.307874399220603e-07 1.307874399216836e-07
1.525898651804277e-07 1.089931238842308e-07
1.744293741339522e-07 1.090188612376498e-07
1.744596341917113e-07 1.308451266766890e-07
1.526164318332624e-07 1.308143025921028e-07
1.744293741339522e-07 1.090188612376498e-07
1.962850745691082e-07 1.090478347236248e-07
1.963189772814235e-07 1.308798283969312e-07
1.744596341917113e-07 1.308451266766890e-07
1.962850745691082e-07 1.090478347236248e-07
2.181588670727791e-07 1.090799616234531e-07
2.181963497230984e-07 1.309183070897480e-07
1.963189772814235e-07 1.308798283969312e-07
2.181588670727791e-07 1.090799616234531e-07
2.400526052358895e-07 1.091151463936441e-07
2.400935922922008e-07 1.309604448301928e-07
2.181963497230984e-07 1.309183070897480e-07
2.400526052358895e-07 1.091151463936441e-07
2.619680877009272e-07 1.091532819416644e-07
2.620124908526118e-07 1.310061076223359e-07
2.400935922922008e-07 1.309604448301928e-07
2.619680877009272e-07 1.091532819416644e-07
2.839070483056032e-07 1.091942522074223e-07
2.839547676271018e-07 1.310551486755427e-07
2.620124908526118e-07 1.310061076223359e-07
2.839070483056032e-07 1.091942522074223e-07
3.058711434474976e-07 1.092379358348120e-07
3.059220693801784e-07 1.311074136644470e-07
2.839547676271018e-07 1.310551486755427e-07
3.058711434474976e-07 1.092379358348120e-07
3.278619358630340e-07 1.092842102949090e-07
3.279159513060439e-07 1.311627469597306e-07
3.059220693801784e-07 1.311074136644470e-07
0.000000000000000e+00 1.307123820255699e-07
2.178588372360474e-08 1.307144794748344e-07
2.179038821112463e-08 1.525315512248787e-07
0.000000000000000e+00 1.525291115285620e-07
2.178588372360474e-08 1.307144794748344e-07
4.357383607273978e-08 1.307207677110385e-07
4.358284076802332e-08 1.525388656640811e-07
2.179038821112463e-08 1.525315512248787e-07
4.357383607273978e-08 1.307207677110385e-07
6.536592100004184e-08 1.307312342270462e-07
6.537941709016964e-08 1.525510407378862e-07
4.358284076802332e-08 1.525388656640811e-07
6.536592100004184e-08 1.307312342270462e-07
8.716419303208590e-08 1.307458576414027e-07
8.718216666903482e-08 1.525680522931281e-07
6.537941709016964e-08 1.525510407378862e-07
8.716419303208590e-08 1.307458576414027e-07
1.089706923886116e-07 1.307646068551003e-07
1.089931238835822e-07 1.525898651765220e-07
8.718216666903482e-08 1.525680522931281e-07
1.089706923886116e-07 1.307646068551003e-07
1.307874399220603e-07 1.307874399216836e-07
1.308143025915556e-07 1.526164318331631e-07
1.089931238835822e-07 1.525898651765220e-07
1.307874399220603e-07 1.307874399216836e-07
1.526164318332624e-07 1.308143025921028e-07
1.526476904658983e-07 1.526476904653390e-07
1.308143025915556e-07 1.526164318331631e-07
1.526164318332624e-07 1.308143025921028e-07
1.744596341917113e-07 1.308451266766890e-07
1.744952431305990e-07 1.526835628112544e-07
1.526476904658983e-07 1.526476904653390e-07
1.744596341917113e-07 1.308451266766890e-07
1.963189772814235e-07 1.308798283969312e-07
1.963588782033834e-07 1.527239516232492e-07
1.744952431305990e-07 1.526835628112544e-07
1.963189772814235e-07 1.308798283969312e-07
2.181963497230984e-07 1.309183070897480e-07
2.182404694129586e-07 1.527687382504496e-07
1.963588782033834e-07 1.527239516232492e-07
2.181963497230984e-07 1.309183070897480e-07
2.400935922922008e-07 1.309604448301928e-07
2.401418409859600e-07 1.528177811644509e-07
2.182404694129586e-07 1.527687382504496e-07
2.400935922922008e-07 1.309604448301928e-07
2.620124908526118e-07 1.310061076223359e-07
2.620647618589714e-07 1.528709164759171e-07
2.401418409859600e-07 1.528177811644509e-07
2.620124908526118e-07 1.310061076223359e-07
2.839547676271018e-07 1.310551486755427e-07
2.840109387847666e-07 1.529279617918304e-07
2.620647618589714e-07 1.528709164759171e-07
2.839547676271018e-07 1.310551486755427e-07
3.059220693801784e-07 1.311074136644470e-07
3.059820061340745e-07 1.529887237049018e-07
2.840109387847666e-07 1.529279617918304e-07
3.059220693801784e-07 1.311074136644470e-07
3.279159513060439e-07 1.311627469597306e-07
3.279795102478347e-07 1.530530075610131e-07
3.059820061340745e-07 1.529887237049018e-07
0.000000000000000e+00 1.525291115285620e-07
2.179038821112463e-08 1.525315512248787e-07
2.179555592436522e-08 1.743629653834011e-07
0.000000000000000e+00 1.743601873787368e-07
2.179038821112463e-08 1.525315512248787e-07
4.358284076802332e-08 1.525388656640811e-07
4.359317138877330e-08 1.743712942941425e-07
2.179555592436522e-08 1.743629653834011e-07
4.358284076802332e-08 1.525388656640811e-07
6.537941709016964e-08 1.525510407378862e-07
6.539490077873145e-08 1.743851585133481e-07
4.359317138877330e-08 1.743712942941425e-07
6.537941709016964e-08 1.525510407378862e-07
8.718216666903482e-08 1.525680522931281e-07
8.720278805027869e-08 1.744045313994344e-07
6.539490077873145e-08 1.743851585133481e-07
8.718216666903482e-08 1.525680522931281e-07
1.089931238835822e-07 1.525898651765220e-07
1.090188612388762e-07 1.744293741360250e-07
8.720278805027869e-08 1.744045313994344e-07
1.089931238835822e-07 1.525898651765220e-07
1.308143025915556e-07 1.526164318331631e-07
1.308451266753871e-07 1.744596341947061e-07
1.090188612388762e-07 1.744293741360250e-07
1.308143025915556e-07 1.526164318331631e-07
1.526476904658983e-07 1.526476904653390e-07
1.526835628118047e-07 1.744952431339392e-07
1.308451266753871e-07 1.744596341947061e-07
1.526476904658983e-07 1.526476904653390e-07
1.744952431305990e-07 1.526835628112544e-07
1.745361137592907e-07 1.745361137617503e-07
1.526835628118047e-07 1.744952431339392e-07