<?xml version="1.0" ?> 
<!-- 
# vtk DataFile Version 3.0
-->
<VTKFile type="UnstructuredGrid" version="0.1" compressor="vtkZLibDataCompressor" byte_order="LittleEndian">
  <UnstructuredGrid>
    <FieldData>
      <DataArray type="Float64" Name="TIME" NumberOfTuples="1" format="ascii">
5.000000000000000e+00 
      </DataArray>
    </FieldData>

    <Piece NumberOfPoints="24" NumberOfCells="3" >
      <Points>
        <DataArray type="Float64" NumberOfComponents="3" format="ascii">
1.000000000000000e+01 0.000000000000000e+00 5.000000000000000e-01
1.000000000000000e+01 1.000000000000000e+00 5.000000000000000e-01
1.000000000000000e+01 1.000000000000000e+00 -5.000000000000000e-01
1.000000000000000e+01 0.000000000000000e+00 -5.000000000000000e-01
6.666666510000000e+00 0.000000000000000e+00 5.000000000000000e-01
6.666666510000000e+00 1.000000000000000e+00 5.000000000000000e-01
6.666666510000000e+00 1.000000000000000e+00 -5.000000000000000e-01
6.666666510000000e+00 0.000000000000000e+00 -5.000000000000000e-01
6.666666510000000e+00 0.000000000000000e+00 5.000000000000000e-01
6.666666510000000e+00 1.000000000000000e+00 5.000000000000000e-01
6.666666510000000e+00 1.000000000000000e+00 -5.000000000000000e-01
6.666666510000000e+00 0.000000000000000e+00 -5.000000000000000e-01
3.333333250000000e+00 0.000000000000000e+00 5.000000000000000e-01
3.333333250000000e+00 1.000000000000000e+00 5.000000000000000e-01
3.333333250000000e+00 1.000000000000000e+00 -5.000000000000000e-01
3.333333250000000e+00 0.000000000000000e+00 -5.000000000000000e-01
3.333333250000000e+00 0.000000000000000e+00 5.000000000000000e-01
3.333333250000000e+00 1.000000000000000e+00 5.000000000000000e-01
3.333333250000000e+00 1.000000000000000e+00 -5.000000000000000e-01
3.333333250000000e+00 0.000000000000000e+00 -5.000000000000000e-01
0.000000000000000e+00 0.000000000000000e+00 5.000000000000000e-01
0.000000000000000e+00 1.000000000000000e+00 5.000000000000000e-01
0.000000000000000e+00 1.000000000000000e+00 -5.000000000000000e-01
0.000000000000000e+00 0.000000000000000e+00 -5.000000000000000e-01
        </DataArray>
      </Points>

      <Cells>
        <DataArray type="Int32" Name="connectivity" format="ascii">
0 1 2 3 4 5 6 7 8 9 10 11 12 13 14 15 16 17 18 19 20 21 22 23 
        </DataArray>
        <DataArray type="Int32" Name="offsets" format="ascii">
8 16 24 
        </DataArray>
        <DataArray type="UInt8" Name="types" format="ascii">
12 12 12 
        </DataArray>
      </Cells>

  <PointData>
        <DataArray type="Float64" Name="displacement" NumberOfComponents="3" format="ascii">
4.260662615816639e-01 0.000000000000000e+00 0.000000000000000e+00
4.260662615816639e-01 0.000000000000000e+00 0.000000000000000e+00
4.260662615816638e-01 0.000000000000000e+00 0.000000000000000e+00
4.260662615816639e-01 0.000000000000000e+00 0.000000000000000e+00
1.892629022178376e-01 0.000000000000000e+00 0.000000000000000e+00
1.892629022178376e-01 0.000000000000000e+00 0.000000000000000e+00
1.892629022178376e-01 0.000000000000000e+00 0.000000000000000e+00
1.892629022178376e-01 0.000000000000000e+00 0.000000000000000e+00
1.892629022178376e-01 0.000000000000000e+00 0.000000000000000e+00
1.892629022178376e-01 0.000000000000000e+00 0.000000000000000e+00
1.892629022178376e-01 0.000000000000000e+00 0.000000000000000e+00
1.892629022178376e-01 0.000000000000000e+00 0.000000000000000e+00
4.730517732457891e-02 0.000000000000000e+00 0.000000000000000e+00
4.730517732457892e-02 0.000000000000000e+00 0.000000000000000e+00
4.730517732457892e-02 0.000000000000000e+00 0.000000000000000e+00
4.730517732457892e-02 0.000000000000000e+00 0.000000000000000e+00
4.730517732457891e-02 0.000000000000000e+00 0.000000000000000e+00
4.730517732457892e-02 0.000000000000000e+00 0.000000000000000e+00
4.730517732457892e-02 0.000000000000000e+00 0.000000000000000e+00
4.730517732457892e-02 0.000000000000000e+00 0.000000000000000e+00
0.000000000000000e+00 0.000000000000000e+00 0.000000000000000e+00
0.000000000000000e+00 0.000000000000000e+00 0.000000000000000e+00
0.000000000000000e+00 0.000000000000000e+00 0.000000000000000e+00
0.000000000000000e+00 0.000000000000000e+00 0.000000000000000e+00
        </DataArray>
      </PointData>

    </Piece>
  </UnstructuredGrid>
</VTKFile>
