<?xml version="1.0" ?> 
<!-- 
# vtk DataFile Version 3.0
-->
<VTKFile type="UnstructuredGrid" version="0.1" compressor="vtkZLibDataCompressor" byte_order="LittleEndian">
  <UnstructuredGrid>
    <FieldData>
      <DataArray type="Float64" Name="TIME" NumberOfTuples="1" format="ascii">
3.000000000000000e+00 
      </DataArray>
    </FieldData>

    <Piece NumberOfPoints="32" NumberOfCells="0" >
      <Points>
        <DataArray type="Float64" NumberOfComponents="3" format="ascii">
-2.000000000000000e+00 1.000000000000000e+00 -1.000000000000000e+00
-2.000000000000000e+00 1.000000000000000e+00 0.000000000000000e+00
-1.000000000000000e+00 1.000000000000000e+00 0.000000000000000e+00
-1.000000000000000e+00 1.000000000000000e+00 -1.000000000000000e+00
-1.000000000000000e+00 1.000000000000000e+00 0.000000000000000e+00
-1.000000000000000e+00 1.000000000000000e+00 1.000000000000000e+00
0.000000000000000e+00 1.000000000000000e+00 1.000000000000000e+00
0.000000000000000e+00 1.000000000000000e+00 0.000000000000000e+00
0.000000000000000e+00 1.000000000000000e+00 0.000000000000000e+00
0.000000000000000e+00 1.000000000000000e+00 1.000000000000000e+00
1.000000000000000e+00 1.000000000000000e+00 1.000000000000000e+00
1.000000000000000e+00 1.000000000000000e+00 0.000000000000000e+00
0.000000000000000e+00 1.000000000000000e+00 -1.000000000000000e+00
0.000000000000000e+00 1.000000000000000e+00 0.000000000000000e+00
1.000000000000000e+00 1.000000000000000e+00 0.000000000000000e+00
1.000000000000000e+00 1.000000000000000e+00 -1.000000000000000e+00
-2.000000000000000e+00 1.000000000000000e+00 0.000000000000000e+00
-2.000000000000000e+00 1.000000000000000e+00 1.000000000000000e+00
-1.000000000000000e+00 1.000000000000000e+00 1.000000000000000e+00
-1.000000000000000e+00 1.000000000000000e+00 0.000000000000000e+00
1.000000000000000e+00 1.000000000000000e+00 -1.000000000000000e+00
1.000000000000000e+00 1.000000000000000e+00 0.000000000000000e+00
2.000000000000000e+00 1.000000000000000e+00 0.000000000000000e+00
2.000000000000000e+00 1.000000000000000e+00 -1.000000000000000e+00
1.000000000000000e+00 1.000000000000000e+00 0.000000000000000e+00
1.000000000000000e+00 1.000000000000000e+00 1.000000000000000e+00
2.000000000000000e+00 1.000000000000000e+00 1.000000000000000e+00
2.000000000000000e+00 1.000000000000000e+00 0.000000000000000e+00
-1.000000000000000e+00 1.000000000000000e+00 -1.000000000000000e+00
-1.000000000000000e+00 1.000000000000000e+00 0.000000000000000e+00
0.000000000000000e+00 1.000000000000000e+00 0.000000000000000e+00
0.000000000000000e+00 1.000000000000000e+00 -1.000000000000000e+00
        </DataArray>
      </Points>

      <Cells>
        <DataArray type="Int32" Name="connectivity" format="ascii">

        </DataArray>
        <DataArray type="Int32" Name="offsets" format="ascii">

        </DataArray>
        <DataArray type="UInt8" Name="types" format="ascii">

        </DataArray>
      </Cells>

  <PointData>
        <DataArray type="Int32" Name="coupling_id" format="ascii">
1
1
1
1
1
1
1
1
1
1
1
1
1
1
1
1
1
1
1
1
1
1
1
1
1
1
1
1
1
1
1
1
        </DataArray>
        <DataArray type="Float64" Name="displacement" NumberOfComponents="3" format="ascii">
1.019542846936061e-02 -8.929836361112331e-04 -1.027758260980449e-02
2.157583045777911e-02 9.361703798980825e-03 -1.757354510010768e-02
2.492348675422495e-02 -2.018929901530164e-02 -3.541671407361840e-02
2.279613925191093e-02 -3.053410849664462e-02 -4.051878418553390e-02
2.492348675422495e-02 -2.018929901530164e-02 -3.541671407361840e-02
1.913713872754597e-02 2.177784639183056e-03 -2.916450188813247e-02
1.269395756508077e-02 -3.070822944892138e-03 -4.141688584423531e-02
1.669727322856750e-02 -1.124903005873440e-01 -4.867217831193309e-02
1.669727322856750e-02 -1.124903005873440e-01 -4.867217831193309e-02
1.269395756508077e-02 -3.070822944892138e-03 -4.141688584423531e-02
6.826576371644633e-03 5.559436521349381e-03 -4.919587462449326e-02
-2.567347127975572e-03 -7.701269856790360e-02 -5.921458826171568e-02
6.960721202764533e-03 -3.274665804249577e-01 -7.914273471726418e-02
1.669727322856750e-02 -1.124903005873440e-01 -4.867217831193309e-02
-2.567347127975572e-03 -7.701269856790360e-02 -5.921458826171568e-02
7.101710143476270e-03 -3.220594474773077e-01 -8.395159510827077e-02
2.157583045777911e-02 9.361703798980825e-03 -1.757354510010768e-02
2.295857730570106e-02 2.062741542128488e-02 -2.147069085697462e-02
1.913713872754597e-02 2.177784639183056e-03 -2.916450188813247e-02
2.492348675422495e-02 -2.018929901530164e-02 -3.541671407361840e-02
7.101710143476270e-03 -3.220594474773077e-01 -8.395159510827077e-02
-2.567347127975572e-03 -7.701269856790360e-02 -5.921458826171568e-02
-1.105809393625279e-02 -2.642284411800611e-02 -5.592535448598196e-02
-2.761196339887784e-02 -2.982257633766572e-02 -6.554510390484825e-02
-2.567347127975572e-03 -7.701269856790360e-02 -5.921458826171568e-02
6.826576371644633e-03 5.559436521349381e-03 -4.919587462449326e-02
1.388116839073916e-03 1.305414753027923e-02 -5.099212599795133e-02
-1.105809393625279e-02 -2.642284411800611e-02 -5.592535448598196e-02
2.279613925191093e-02 -3.053410849664462e-02 -4.051878418553390e-02
2.492348675422495e-02 -2.018929901530164e-02 -3.541671407361840e-02
1.669727322856750e-02 -1.124903005873440e-01 -4.867217831193309e-02
6.960721202764533e-03 -3.274665804249577e-01 -7.914273471726418e-02
        </DataArray>
        <DataArray type="Float64" Name="normal_averaged" NumberOfComponents="3" format="ascii">
2.894008227139420e-02 9.995243378065303e-01 -1.065691186704413e-02
2.924236153505523e-02 9.995117945600481e-01 -1.100258275158141e-02
6.082557248924785e-02 9.980182772936591e-01 -1.611731736836074e-02
1.600925150579585e-01 9.870461906460603e-01 -1.049781660721451e-02
6.082557248924784e-02 9.980182772936591e-01 -1.611731736836074e-02
1.167503976576894e-02 9.996863976494722e-01 -2.215400192040213e-02
-2.777653698018854e-03 9.941463105598305e-01 -1.080064712885817e-01
2.609339898915184e-02 9.873637292340036e-01 -1.563073917711970e-01
2.609339898915184e-02 9.873637292340036e-01 -1.563073917711970e-01
-2.777653698018854e-03 9.941463105598305e-01 -1.080064712885817e-01
-8.473197438911175e-03 9.966454939710717e-01 -8.140002624274781e-02
-4.359678430477233e-02 9.865822862532413e-01 -1.573363049318589e-01
1.362146160374742e-01 9.695421452605801e-01 -2.035524672935112e-01
2.609339898915184e-02 9.873637292340036e-01 -1.563073917711970e-01
-4.359678430477233e-02 9.865822862532413e-01 -1.573363049318589e-01
-1.437126641855903e-01 9.621752123206826e-01 -2.314422842704616e-01
2.924236153505523e-02 9.995117945600481e-01 -1.100258275158141e-02
1.842854440478105e-02 9.997659516902120e-01 -1.133272218339858e-02
1.167503976576894e-02 9.996863976494722e-01 -2.215400192040213e-02
6.082557248924785e-02 9.980182772936591e-01 -1.611731736836074e-02
-1.437126641855903e-01 9.621752123206826e-01 -2.314422842704616e-01
-4.359678430477232e-02 9.865822862532412e-01 -1.573363049318589e-01
-5.087801749060988e-02 9.984933406133740e-01 -2.055422309331659e-02
-2.897847945342547e-01 9.570906104084974e-01 1.528504049690474e-03
-4.359678430477232e-02 9.865822862532412e-01 -1.573363049318589e-01
-8.473197438911175e-03 9.966454939710717e-01 -8.140002624274781e-02
-7.600418040929561e-03 9.992041333751214e-01 -3.915780243675418e-02
-5.087801749060988e-02 9.984933406133740e-01 -2.055422309331659e-02
1.600925150579585e-01 9.870461906460603e-01 -1.049781660721451e-02
6.082557248924784e-02 9.980182772936591e-01 -1.611731736836074e-02
2.609339898915184e-02 9.873637292340036e-01 -1.563073917711970e-01
1.362146160374742e-01 9.695421452605801e-01 -2.035524672935112e-01
        </DataArray>
        <DataArray type="Float64" Name="normal_element" NumberOfComponents="3" format="ascii">
2.894008227139420e-02 9.995243378065303e-01 -1.065691186704413e-02
2.924855148181742e-02 9.995153220769908e-01 -1.066035503842058e-02
2.925417535267133e-02 9.995184270765659e-01 -1.034925885378904e-02
2.894937375381312e-02 9.995273073115666e-01 -1.034870512437454e-02
9.235835508907940e-02 9.954915934071538e-01 -2.159679839526272e-02
5.007589785997166e-03 9.997411514800648e-01 -2.219355946776518e-02
3.920127658102870e-03 9.941453648950835e-01 -1.079797483640585e-01
9.071171939678593e-02 9.900912813111961e-01 -1.071943964749697e-01
-3.709925630298019e-02 9.934511013727128e-01 -1.080673603041634e-01
-9.475310445845519e-03 9.941026578367778e-01 -1.080283489358653e-01
-9.288900399414426e-03 9.966388889690690e-01 -8.139189962071974e-02
-3.690227462772841e-02 9.960238343584374e-01 -8.108479214511020e-02
-6.274036134410300e-03 9.789170264038316e-01 -2.041619256552606e-01
-3.757972707916270e-02 9.783038909053984e-01 -2.037382172102567e-01
-3.765656803815970e-02 9.718084490356420e-01 -2.327451852703464e-01
-6.376449882269804e-03 9.725453059368390e-01 -2.326262426879638e-01
2.923616816194897e-02 9.995081499297425e-01 -1.134480917556338e-02
1.842854440478105e-02 9.997659516902118e-01 -1.133272218339858e-02
1.834197067967048e-02 9.995871983094539e-01 -2.211345941825377e-02
2.904075871180156e-02 9.993350757063184e-01 -2.204633294881089e-02
-2.783226239043876e-01 9.335524852392089e-01 -2.258678249035786e-01
-4.878748068800878e-02 9.713162996012749e-01 -2.327325242784161e-01
-5.094826623756823e-02 9.986980952241274e-01 -2.527600262248487e-03
-2.897847945342547e-01 9.570906104084974e-01 1.528504049690474e-03
-5.052200718582002e-02 9.954401208813902e-01 -8.091039815474359e-02
-7.657488839656118e-03 9.966514357244461e-01 -8.140809869460597e-02
-7.600418040929561e-03 9.992041333751214e-01 -3.915780243675418e-02
-5.079123308320622e-02 9.979640696859157e-01 -3.857416567875895e-02
2.884573589828401e-01 9.574355545667858e-01 -1.046474557916534e-02
9.252270733943060e-02 9.956558058482743e-01 -1.044341453768024e-02
8.800657792393052e-02 9.749595461524734e-01 -2.042271421929076e-01
2.759256784011562e-01 9.403970628009176e-01 -1.987923144245484e-01
        </DataArray>
        <DataArray type="Int32" Name="uid_0_face_id" format="ascii">
1
1
1
1
2
2
2
2
4
4
4
4
5
5
5
5
0
0
0
0
7
7
7
7
6
6
6
6
3
3
3
3
        </DataArray>
      </PointData>

    </Piece>
  </UnstructuredGrid>
</VTKFile>
