<?xml version="1.0" ?> 
<!-- 
# vtk DataFile Version 3.0
-->
<VTKFile type="UnstructuredGrid" version="0.1" compressor="vtkZLibDataCompressor" byte_order="LittleEndian">
  <UnstructuredGrid>
    <FieldData>
      <DataArray type="Float64" Name="TIME" NumberOfTuples="1" format="ascii">
2.500000100000000e-01 
      </DataArray>
    </FieldData>

    <Piece NumberOfPoints="32" NumberOfCells="0" >
      <Points>
        <DataArray type="Float64" NumberOfComponents="3" format="ascii">
-1.000000000000000e+00 1.000000000000000e+00 0.000000000000000e+00
-1.000000000000000e+00 1.000000000000000e+00 1.000000000000000e+00
0.000000000000000e+00 1.000000000000000e+00 1.000000000000000e+00
0.000000000000000e+00 1.000000000000000e+00 0.000000000000000e+00
-1.000000000000000e+00 1.000000000000000e+00 -1.000000000000000e+00
-1.000000000000000e+00 1.000000000000000e+00 0.000000000000000e+00
0.000000000000000e+00 1.000000000000000e+00 0.000000000000000e+00
0.000000000000000e+00 1.000000000000000e+00 -1.000000000000000e+00
0.000000000000000e+00 1.000000000000000e+00 -1.000000000000000e+00
0.000000000000000e+00 1.000000000000000e+00 0.000000000000000e+00
1.000000000000000e+00 1.000000000000000e+00 0.000000000000000e+00
1.000000000000000e+00 1.000000000000000e+00 -1.000000000000000e+00
-2.000000000000000e+00 1.000000000000000e+00 0.000000000000000e+00
-2.000000000000000e+00 1.000000000000000e+00 1.000000000000000e+00
-1.000000000000000e+00 1.000000000000000e+00 1.000000000000000e+00
-1.000000000000000e+00 1.000000000000000e+00 0.000000000000000e+00
1.000000000000000e+00 1.000000000000000e+00 -1.000000000000000e+00
1.000000000000000e+00 1.000000000000000e+00 0.000000000000000e+00
2.000000000000000e+00 1.000000000000000e+00 0.000000000000000e+00
2.000000000000000e+00 1.000000000000000e+00 -1.000000000000000e+00
-2.000000000000000e+00 1.000000000000000e+00 -1.000000000000000e+00
-2.000000000000000e+00 1.000000000000000e+00 0.000000000000000e+00
-1.000000000000000e+00 1.000000000000000e+00 0.000000000000000e+00
-1.000000000000000e+00 1.000000000000000e+00 -1.000000000000000e+00
1.000000000000000e+00 1.000000000000000e+00 0.000000000000000e+00
1.000000000000000e+00 1.000000000000000e+00 1.000000000000000e+00
2.000000000000000e+00 1.000000000000000e+00 1.000000000000000e+00
2.000000000000000e+00 1.000000000000000e+00 0.000000000000000e+00
0.000000000000000e+00 1.000000000000000e+00 0.000000000000000e+00
0.000000000000000e+00 1.000000000000000e+00 1.000000000000000e+00
1.000000000000000e+00 1.000000000000000e+00 1.000000000000000e+00
1.000000000000000e+00 1.000000000000000e+00 0.000000000000000e+00
        </DataArray>
      </Points>

      <Cells>
        <DataArray type="Int32" Name="connectivity" format="ascii">

        </DataArray>
        <DataArray type="Int32" Name="offsets" format="ascii">

        </DataArray>
        <DataArray type="UInt8" Name="types" format="ascii">

        </DataArray>
      </Cells>

  <PointData>
        <DataArray type="Int32" Name="coupling_id" format="ascii">
1
1
1
1
1
1
1
1
1
1
1
1
1
1
1
1
1
1
1
1
1
1
1
1
1
1
1
1
1
1
1
1
        </DataArray>
        <DataArray type="Float64" Name="displacement" NumberOfComponents="3" format="ascii">
-2.239501425820967e-03 -4.336628509969631e-02 -2.725122776993656e-02
-3.747958615835323e-03 -7.320863235643071e-03 -2.017083471252124e-02
-6.979550392616060e-03 2.791012238680723e-03 -2.248630404205965e-02
-8.393365343994800e-03 -2.664686613526090e-02 -2.772037051726795e-02
-4.323002503066053e-03 -1.032886823912432e-01 -4.473873439914677e-02
-2.239501425820967e-03 -4.336628509969631e-02 -2.725122776993656e-02
-8.393365343994800e-03 -2.664686613526090e-02 -2.772037051726795e-02
-4.485753142806657e-03 -9.501761393478492e-02 -4.252350865878096e-02
-4.485753142806657e-03 -9.501761393478492e-02 -4.252350865878096e-02
-8.393365343994800e-03 -2.664686613526090e-02 -2.772037051726795e-02
-8.676522003404852e-03 -5.914717076199949e-03 -1.710852836419818e-02
-3.750477537327490e-03 -1.070040855409138e-02 -1.752477798192831e-02
3.405094536223396e-03 -9.875942045025177e-03 -2.381116006606765e-02
-9.434419935487881e-04 1.538421306420457e-03 -2.142127972644181e-02
-3.747958615835323e-03 -7.320863235643071e-03 -2.017083471252124e-02
-2.239501425820967e-03 -4.336628509969631e-02 -2.725122776993656e-02
-3.750477537327490e-03 -1.070040855409138e-02 -1.752477798192831e-02
-8.676522003404852e-03 -5.914717076199949e-03 -1.710852836419818e-02
-6.756375197900066e-03 3.386087578878927e-03 -8.334701891479645e-03
-5.239161133927528e-04 -2.271230141496328e-03 -6.245314280386660e-03
1.262750101107102e-03 -1.857739815949433e-02 -2.529546203996214e-02
3.405094536223396e-03 -9.875942045025177e-03 -2.381116006606765e-02
-2.239501425820967e-03 -4.336628509969631e-02 -2.725122776993656e-02
-4.323002503066053e-03 -1.032886823912432e-01 -4.473873439914677e-02
-8.676522003404852e-03 -5.914717076199949e-03 -1.710852836419818e-02
-9.366723647262876e-03 4.635198030189969e-03 -1.598475266973409e-02
-1.031585874510177e-02 9.120867657740339e-03 -9.812706350838418e-03
-6.756375197900066e-03 3.386087578878927e-03 -8.334701891479645e-03
-8.393365343994800e-03 -2.664686613526090e-02 -2.772037051726795e-02
-6.979550392616060e-03 2.791012238680723e-03 -2.248630404205965e-02
-9.366723647262876e-03 4.635198030189969e-03 -1.598475266973409e-02
-8.676522003404852e-03 -5.914717076199949e-03 -1.710852836419818e-02
        </DataArray>
        <DataArray type="Float64" Name="normal_averaged" NumberOfComponents="3" format="ascii">
8.320789967241010e-03 9.988468473104384e-01 -4.728361314788697e-02
-6.489064007170656e-04 9.993598359716704e-01 -3.577005964712688e-02
-5.932453969721673e-03 9.995541361558252e-01 -2.926320016128323e-02
-1.851051469387562e-02 9.986628268100222e-01 -4.826923651337126e-02
3.777221642222297e-02 9.975534010922233e-01 -5.882577356814631e-02
8.320789967241006e-03 9.988468473104383e-01 -4.728361314788696e-02
-1.851051469387562e-02 9.986628268100222e-01 -4.826923651337126e-02
-4.513202562889837e-02 9.967097743784143e-01 -6.732552206379898e-02
-4.513202562889837e-02 9.967097743784143e-01 -6.732552206379898e-02
-1.851051469387562e-02 9.986628268100222e-01 -4.826923651337126e-02
-1.493327933850902e-02 9.998588304082840e-01 -7.701715573594658e-03
-4.612073212018136e-02 9.989233311702587e-01 -5.005648051192680e-03
3.362514894846258e-02 9.993845382234945e-01 -9.994704498199319e-03
8.897505907246776e-03 9.998960304247945e-01 -1.134736662706666e-02
-6.489064007170656e-04 9.993598359716704e-01 -3.577005964712688e-02
8.320789967241013e-03 9.988468473104384e-01 -4.728361314788697e-02
-4.612073212018136e-02 9.989233311702587e-01 -5.005648051192680e-03
-1.493327933850902e-02 9.998588304082840e-01 -7.701715573594658e-03
-9.232067832525694e-03 9.999408447744200e-01 -5.751162956756603e-03
-8.337317457251865e-03 9.999488786633051e-01 -5.720943769694311e-03
8.470481565198139e-02 9.963668905494233e-01 -8.838191117943451e-03
3.362514894846258e-02 9.993845382234945e-01 -9.994704498199319e-03
8.320789967241013e-03 9.988468473104384e-01 -4.728361314788697e-02
3.777221642222297e-02 9.975534010922233e-01 -5.882577356814631e-02
-1.493327933850902e-02 9.998588304082840e-01 -7.701715573594658e-03
-3.102168330659622e-03 9.999396451299718e-01 -1.053957537068466e-02
-4.454233629351964e-03 9.999734965403176e-01 -5.758994678484099e-03
-9.232067832525694e-03 9.999408447744200e-01 -5.751162956756603e-03
-1.851051469387562e-02 9.986628268100222e-01 -4.826923651337127e-02
-5.932453969721673e-03 9.995541361558252e-01 -2.926320016128323e-02
-3.102168330659622e-03 9.999396451299718e-01 -1.053957537068466e-02
-1.493327933850902e-02 9.998588304082840e-01 -7.701715573594658e-03
        </DataArray>
        <DataArray type="Float64" Name="normal_element" NumberOfComponents="3" format="ascii">
-1.682667856278299e-02 9.992176918822646e-01 -3.578920393113943e-02
-1.022075394780781e-02 9.993073339146459e-01 -3.578251770265694e-02
-1.020774906058159e-02 9.995198235426836e-01 -2.925618232644392e-02
-1.682717158122284e-02 9.994306476683817e-01 -2.924426093671945e-02
-8.127626886779645e-03 9.982383379237960e-01 -5.877212247593840e-02
-1.681923731054540e-02 9.981311458677089e-01 -5.874801192471056e-02
-1.681420493309449e-02 9.975927158175201e-01 -6.727596792534879e-02
-8.104417210024785e-03 9.977032487061981e-01 -6.724987689791115e-02
-8.209771126135097e-02 9.943487778616195e-01 -6.730879415612442e-02
-1.997266845368526e-02 9.975339257936738e-01 -6.728416905558160e-02
-2.068149042842287e-02 9.997741835271401e-01 -4.884455578629436e-03
-8.382817326580953e-02 9.964667628396897e-01 -5.179567810820117e-03
3.362042297834446e-02 9.993715331218453e-01 -1.123414190979352e-02
8.897505907246776e-03 9.998960304247945e-01 -1.134736662706666e-02
8.923000601239775e-03 9.993207735054235e-01 -3.575432422508568e-02
3.351654880116303e-02 9.988003966013010e-01 -3.569886140401141e-02
-8.347434438901100e-03 9.999535207997804e-01 -4.824580646153062e-03
-9.240188353716212e-03 9.999456486570910e-01 -4.828938903865417e-03
-9.232285202582746e-03 9.999409843780234e-01 -5.726488544252293e-03
-8.337317457251865e-03 9.999488786633051e-01 -5.720943769694311e-03
8.470481565198139e-02 9.963668905494233e-01 -8.838191117943451e-03
3.362982325701738e-02 9.993960078741722e-01 -8.755251730775460e-03
3.339979142423429e-02 9.977093540254627e-01 -5.882600464855697e-02
8.359246356214392e-02 9.947663522666450e-01 -5.875546301174588e-02
-9.189743503882516e-03 9.999021881181455e-01 -1.054337758394657e-02
-4.424519947997778e-03 9.999346592972460e-01 -1.054043449437040e-02
-4.454233629351963e-03 9.999734965403174e-01 -5.758994678484098e-03
-9.231850456847292e-03 9.999407045619589e-01 -5.775837365759064e-03
-2.041448295416273e-02 9.993640133946583e-01 -2.923726419204646e-02
-1.657050437312633e-03 9.995701775443593e-01 -2.926968308312129e-02
-1.779811288747708e-03 9.999428824288399e-01 -1.053869781708221e-02
-2.062047656563192e-02 9.997317164129755e-01 -1.054946179538977e-02
        </DataArray>
        <DataArray type="Int32" Name="uid_0_face_id" format="ascii">
2
2
2
2
3
3
3
3
5
5
5
5
0
0
0
0
7
7
7
7
1
1
1
1
6
6
6
6
4
4
4
4
        </DataArray>
      </PointData>

    </Piece>
  </UnstructuredGrid>
</VTKFile>
