<?xml version="1.0" ?> 
<!-- 
# vtk DataFile Version 3.0
-->
<VTKFile type="UnstructuredGrid" version="0.1" compressor="vtkZLibDataCompressor" byte_order="LittleEndian">
  <UnstructuredGrid>
    <FieldData>
      <DataArray type="Float64" Name="TIME" NumberOfTuples="1" format="ascii">
1.000000000000000e-01 
      </DataArray>
    </FieldData>

    <Piece NumberOfPoints="135" NumberOfCells="5" >
      <Points>
        <DataArray type="Float64" NumberOfComponents="3" format="ascii">
-5.000000000000000e-01 -5.000000000000000e-01 -1.000000000000000e+00
5.000000000000000e-01 -5.000000000000000e-01 -1.000000000000000e+00
5.000000000000000e-01 -3.000000000000000e-01 -1.000000000000000e+00
-5.000000000000000e-01 -3.000000000000000e-01 -1.000000000000000e+00
-5.000000000000000e-01 -5.000000000000000e-01 -3.250000000000000e-01
5.000000000000000e-01 -5.000000000000000e-01 -3.250000000000000e-01
5.000000000000000e-01 -3.000000000000000e-01 -3.250000000000000e-01
-5.000000000000000e-01 -3.000000000000000e-01 -3.250000000000000e-01
0.000000000000000e+00 -5.000000000000000e-01 -1.000000000000000e+00
5.000000000000000e-01 -4.000000000000000e-01 -1.000000000000000e+00
0.000000000000000e+00 -3.000000000000000e-01 -1.000000000000000e+00
-5.000000000000000e-01 -4.000000000000000e-01 -1.000000000000000e+00
0.000000000000000e+00 -5.000000000000000e-01 -3.250000000000000e-01
5.000000000000000e-01 -4.000000000000000e-01 -3.250000000000000e-01
0.000000000000000e+00 -3.000000000000000e-01 -3.250000000000000e-01
-5.000000000000000e-01 -4.000000000000000e-01 -3.250000000000000e-01
-5.000000000000000e-01 -5.000000000000000e-01 -6.625000000000001e-01
5.000000000000000e-01 -5.000000000000000e-01 -6.625000000000001e-01
5.000000000000000e-01 -3.000000000000000e-01 -6.625000000000001e-01
-5.000000000000000e-01 -3.000000000000000e-01 -6.625000000000001e-01
-5.000000000000000e-01 -4.000000000000000e-01 -6.624999999999999e-01
5.000000000000000e-01 -4.000000000000000e-01 -6.624999999999999e-01
0.000000000000000e+00 -5.000000000000000e-01 -6.624999999999999e-01
0.000000000000000e+00 -3.000000000000000e-01 -6.624999999999998e-01
0.000000000000000e+00 -4.000000000000000e-01 -1.000000000000000e+00
0.000000000000000e+00 -4.000000000000000e-01 -3.250000000000000e-01
0.000000000000000e+00 -4.000000000000000e-01 -6.625000000000002e-01
-5.000000000000000e-01 -3.000000000000000e-01 -1.000000000000000e+00
5.000000000000000e-01 -3.000000000000000e-01 -1.000000000000000e+00
5.000000000000000e-01 -1.000000000000000e-01 -1.000000000000000e+00
-5.000000000000000e-01 -1.000000000000000e-01 -1.000000000000000e+00
-5.000000000000000e-01 -3.000000000000000e-01 -3.250000000000000e-01
5.000000000000000e-01 -3.000000000000000e-01 -3.250000000000000e-01
5.000000000000000e-01 -1.000000000000000e-01 -3.250000000000000e-01
-5.000000000000000e-01 -1.000000000000000e-01 -3.250000000000000e-01
0.000000000000000e+00 -3.000000000000000e-01 -1.000000000000000e+00
5.000000000000000e-01 -2.000000000000000e-01 -1.000000000000000e+00
0.000000000000000e+00 -1.000000000000000e-01 -1.000000000000000e+00
-5.000000000000000e-01 -2.000000000000000e-01 -1.000000000000000e+00
0.000000000000000e+00 -3.000000000000000e-01 -3.250000000000000e-01
5.000000000000000e-01 -2.000000000000000e-01 -3.250000000000000e-01
0.000000000000000e+00 -1.000000000000000e-01 -3.250000000000001e-01
-5.000000000000000e-01 -2.000000000000000e-01 -3.250000000000000e-01
-5.000000000000000e-01 -3.000000000000000e-01 -6.625000000000001e-01
5.000000000000000e-01 -3.000000000000000e-01 -6.625000000000001e-01
5.000000000000000e-01 -1.000000000000000e-01 -6.625000000000001e-01
-5.000000000000000e-01 -1.000000000000000e-01 -6.625000000000001e-01
-5.000000000000000e-01 -2.000000000000000e-01 -6.624999999999999e-01
5.000000000000000e-01 -2.000000000000000e-01 -6.624999999999999e-01
0.000000000000000e+00 -3.000000000000000e-01 -6.624999999999998e-01
0.000000000000000e+00 -1.000000000000001e-01 -6.624999999999998e-01
0.000000000000000e+00 -2.000000000000000e-01 -1.000000000000000e+00
0.000000000000000e+00 -2.000000000000000e-01 -3.250000000000001e-01
0.000000000000000e+00 -1.999999999999999e-01 -6.625000000000003e-01
-5.000000000000000e-01 -1.000000000000000e-01 -1.000000000000000e+00
5.000000000000000e-01 -1.000000000000000e-01 -1.000000000000000e+00
5.000000000000000e-01 1.000000000000000e-01 -1.000000000000000e+00
-5.000000000000000e-01 1.000000000000000e-01 -1.000000000000000e+00
-5.000000000000000e-01 -1.000000000000000e-01 -3.250000000000000e-01
5.000000000000000e-01 -1.000000000000000e-01 -3.250000000000000e-01
5.000000000000000e-01 1.000000000000000e-01 -3.250000000000000e-01
-5.000000000000000e-01 1.000000000000000e-01 -3.250000000000000e-01
0.000000000000000e+00 -1.000000000000000e-01 -1.000000000000000e+00
5.000000000000001e-01 -5.204170427930421e-17 -1.000000000000000e+00
0.000000000000000e+00 1.000000000000000e-01 -1.000000000000000e+00
-5.000000000000001e-01 -5.204170427930421e-17 -1.000000000000000e+00
0.000000000000000e+00 -1.000000000000000e-01 -3.250000000000001e-01
5.000000000000001e-01 -5.204170427930421e-17 -3.250000000000001e-01
0.000000000000000e+00 1.000000000000000e-01 -3.250000000000001e-01
-5.000000000000001e-01 -5.204170427930421e-17 -3.250000000000001e-01
-5.000000000000000e-01 -1.000000000000000e-01 -6.625000000000001e-01
5.000000000000000e-01 -1.000000000000000e-01 -6.625000000000001e-01
5.000000000000000e-01 1.000000000000000e-01 -6.625000000000001e-01
-5.000000000000000e-01 1.000000000000000e-01 -6.625000000000001e-01
-5.000000000000000e-01 -4.857225732735060e-17 -6.624999999999999e-01
5.000000000000000e-01 -4.857225732735060e-17 -6.624999999999999e-01
0.000000000000000e+00 -1.000000000000001e-01 -6.624999999999998e-01
0.000000000000000e+00 1.000000000000001e-01 -6.624999999999998e-01
0.000000000000000e+00 -4.857225732735060e-17 -1.000000000000000e+00
0.000000000000000e+00 -4.857225732735060e-17 -3.250000000000000e-01
0.000000000000000e+00 -4.683753385137379e-17 -6.625000000000003e-01
-5.000000000000000e-01 1.000000000000000e-01 -1.000000000000000e+00
5.000000000000000e-01 1.000000000000000e-01 -1.000000000000000e+00
5.000000000000000e-01 3.000000000000000e-01 -1.000000000000000e+00
-5.000000000000000e-01 3.000000000000000e-01 -1.000000000000000e+00
-5.000000000000000e-01 1.000000000000000e-01 -3.250000000000000e-01
5.000000000000000e-01 1.000000000000000e-01 -3.250000000000000e-01
5.000000000000000e-01 3.000000000000000e-01 -3.250000000000000e-01
-5.000000000000000e-01 3.000000000000000e-01 -3.250000000000000e-01
0.000000000000000e+00 1.000000000000000e-01 -1.000000000000000e+00
5.000000000000000e-01 2.000000000000000e-01 -1.000000000000000e+00
0.000000000000000e+00 3.000000000000000e-01 -1.000000000000000e+00
-5.000000000000000e-01 2.000000000000000e-01 -1.000000000000000e+00
0.000000000000000e+00 1.000000000000000e-01 -3.250000000000001e-01
5.000000000000000e-01 2.000000000000000e-01 -3.250000000000001e-01
0.000000000000000e+00 3.000000000000000e-01 -3.250000000000000e-01
-5.000000000000000e-01 2.000000000000000e-01 -3.250000000000001e-01
-5.000000000000000e-01 1.000000000000000e-01 -6.625000000000001e-01
5.000000000000000e-01 1.000000000000000e-01 -6.625000000000001e-01
5.000000000000000e-01 3.000000000000000e-01 -6.625000000000001e-01
-5.000000000000000e-01 3.000000000000000e-01 -6.625000000000001e-01
-5.000000000000000e-01 2.000000000000000e-01 -6.624999999999999e-01
5.000000000000000e-01 2.000000000000000e-01 -6.624999999999999e-01
0.000000000000000e+00 1.000000000000001e-01 -6.624999999999998e-01
0.000000000000000e+00 3.000000000000000e-01 -6.624999999999998e-01
0.000000000000000e+00 2.000000000000000e-01 -1.000000000000000e+00
0.000000000000000e+00 2.000000000000000e-01 -3.250000000000000e-01
0.000000000000000e+00 2.000000000000000e-01 -6.625000000000003e-01
-5.000000000000000e-01 3.000000000000000e-01 -1.000000000000000e+00
5.000000000000000e-01 3.000000000000000e-01 -1.000000000000000e+00
5.000000000000000e-01 5.000000000000000e-01 -1.000000000000000e+00
-5.000000000000000e-01 5.000000000000000e-01 -1.000000000000000e+00
-5.000000000000000e-01 3.000000000000000e-01 -3.250000000000000e-01
5.000000000000000e-01 3.000000000000000e-01 -3.250000000000000e-01
5.000000000000000e-01 5.000000000000000e-01 -3.250000000000000e-01
-5.000000000000000e-01 5.000000000000000e-01 -3.250000000000000e-01
0.000000000000000e+00 3.000000000000000e-01 -1.000000000000000e+00
5.000000000000000e-01 4.000000000000000e-01 -1.000000000000000e+00
0.000000000000000e+00 5.000000000000000e-01 -1.000000000000000e+00
-5.000000000000000e-01 4.000000000000000e-01 -1.000000000000000e+00
0.000000000000000e+00 3.000000000000000e-01 -3.250000000000000e-01
5.000000000000000e-01 4.000000000000000e-01 -3.250000000000000e-01
0.000000000000000e+00 5.000000000000000e-01 -3.250000000000000e-01
-5.000000000000000e-01 4.000000000000000e-01 -3.250000000000000e-01
-5.000000000000000e-01 3.000000000000000e-01 -6.625000000000001e-01
5.000000000000000e-01 3.000000000000000e-01 -6.625000000000001e-01
5.000000000000000e-01 5.000000000000000e-01 -6.625000000000001e-01
-5.000000000000000e-01 5.000000000000000e-01 -6.625000000000001e-01
-5.000000000000000e-01 4.000000000000000e-01 -6.624999999999999e-01
5.000000000000000e-01 4.000000000000000e-01 -6.624999999999999e-01
0.000000000000000e+00 3.000000000000000e-01 -6.624999999999998e-01
0.000000000000000e+00 5.000000000000000e-01 -6.624999999999999e-01
0.000000000000000e+00 4.000000000000000e-01 -1.000000000000000e+00
0.000000000000000e+00 4.000000000000000e-01 -3.250000000000000e-01
0.000000000000000e+00 4.000000000000001e-01 -6.625000000000002e-01
        </DataArray>
      </Points>

      <Cells>
        <DataArray type="Int32" Name="connectivity" format="ascii">
0 1 2 3 4 5 6 7 8 9 10 11 12 13 14 15 16 17 18 19 20 21 22 23 24 25 26 27 28 29 30 31 32 33 34 35 36 37 38 39 40 41 42 43 44 45 46 47 48 49 50 51 52 53 54 55 56 57 58 59 60 61 62 63 64 65 66 67 68 69 70 71 72 73 74 75 76 77 78 79 80 81 82 83 84 85 86 87 88 89 90 91 92 93 94 95 96 97 98 99 100 101 102 103 104 105 106 107 108 109 110 111 112 113 114 115 116 117 118 119 120 121 122 123 124 125 126 127 128 129 130 131 132 133 134 
        </DataArray>
        <DataArray type="Int32" Name="offsets" format="ascii">
27 54 81 108 135 
        </DataArray>
        <DataArray type="UInt8" Name="types" format="ascii">
29 29 29 29 29 
        </DataArray>
      </Cells>

  <PointData>
        <DataArray type="Float64" Name="displacement" NumberOfComponents="3" format="ascii">
0.000000000000000e+00 0.000000000000000e+00 0.000000000000000e+00
0.000000000000000e+00 0.000000000000000e+00 0.000000000000000e+00
0.000000000000000e+00 0.000000000000000e+00 0.000000000000000e+00
0.000000000000000e+00 0.000000000000000e+00 0.000000000000000e+00
1.635793017116824e-05 -1.135584689477156e-05 -6.807820568212167e-03
-1.635793017115634e-05 -1.135584689477122e-05 -6.807820568212197e-03
-1.066032715101445e-05 1.067423073256418e-06 -6.839791533963375e-03
1.066032715102655e-05 1.067423073256899e-06 -6.839791533963352e-03
0.000000000000000e+00 0.000000000000000e+00 0.000000000000000e+00
0.000000000000000e+00 0.000000000000000e+00 0.000000000000000e+00
0.000000000000000e+00 0.000000000000000e+00 0.000000000000000e+00
0.000000000000000e+00 0.000000000000000e+00 0.000000000000000e+00
6.193504910323444e-18 2.564205491583728e-06 -6.868686209129277e-03
-1.487161957965158e-05 8.863338078344321e-07 -6.767483780101802e-03
5.969676454011495e-18 -1.897422302128366e-06 -6.865614187600747e-03
1.487161957966368e-05 8.863338078351452e-07 -6.767483780101778e-03
-1.134440068716128e-05 2.811238851464073e-06 -3.414953700538841e-03
1.134440068716630e-05 2.811238851474638e-06 -3.414953700538848e-03
5.814194385330276e-06 -1.101797683833514e-06 -3.419856498896142e-03
-5.814194385328266e-06 -1.101797683840335e-06 -3.419856498896135e-03
-9.808851990788787e-06 -1.780781881481457e-06 -3.421040868732276e-03
9.808851990791983e-06 -1.780781881471071e-06 -3.421040868732283e-03
2.211603025280978e-18 -3.903620589168689e-06 -3.434171264099286e-03
5.786823216522973e-19 -8.368277622372688e-07 -3.430513906386880e-03
0.000000000000000e+00 0.000000000000000e+00 0.000000000000000e+00
6.070420435175554e-18 -2.816381096005944e-06 -6.898074233784291e-03
1.256613081921157e-18 -1.294862106057277e-06 -3.430185136338511e-03
0.000000000000000e+00 0.000000000000000e+00 0.000000000000000e+00
0.000000000000000e+00 0.000000000000000e+00 0.000000000000000e+00
0.000000000000000e+00 0.000000000000000e+00 0.000000000000000e+00
0.000000000000000e+00 0.000000000000000e+00 0.000000000000000e+00
1.066032715102655e-05 1.067423073256899e-06 -6.839791533963352e-03
-1.066032715101445e-05 1.067423073256418e-06 -6.839791533963375e-03
-9.651883371512849e-06 -2.391016689954872e-06 -6.813237386851842e-03
9.651883371524551e-06 -2.391016689956126e-06 -6.813237386851822e-03
0.000000000000000e+00 0.000000000000000e+00 0.000000000000000e+00
0.000000000000000e+00 0.000000000000000e+00 0.000000000000000e+00
0.000000000000000e+00 0.000000000000000e+00 0.000000000000000e+00
0.000000000000000e+00 0.000000000000000e+00 0.000000000000000e+00
5.969676454011495e-18 -1.897422302128366e-06 -6.865614187600747e-03
-7.621324532537382e-06 -2.721915094131327e-06 -6.897468009609269e-03
5.859773929105250e-18 1.085654591240199e-06 -6.872275701020902e-03
7.621324532549346e-06 -2.721915094131718e-06 -6.897468009609248e-03
-5.814194385328266e-06 -1.101797683840335e-06 -3.419856498896135e-03
5.814194385330276e-06 -1.101797683833514e-06 -3.419856498896142e-03
6.507038377676380e-06 1.106344489545286e-06 -3.420486052388229e-03
-6.507038377674665e-06 1.106344489548393e-06 -3.420486052388221e-03
-3.375299353412598e-06 1.107481190974072e-06 -3.417603817843690e-03
3.375299353414102e-06 1.107481190975781e-06 -3.417603817843698e-03
5.786823216522973e-19 -8.368277622372688e-07 -3.430513906386880e-03
5.675120746603812e-19 -7.270777440301042e-07 -3.430033229126597e-03
0.000000000000000e+00 0.000000000000000e+00 0.000000000000000e+00
5.897096318343642e-18 8.827126635193782e-07 -6.835587525154375e-03
3.062156453222304e-19 -1.118054120598325e-06 -3.431636846548279e-03
0.000000000000000e+00 0.000000000000000e+00 0.000000000000000e+00
0.000000000000000e+00 0.000000000000000e+00 0.000000000000000e+00
0.000000000000000e+00 0.000000000000000e+00 0.000000000000000e+00
0.000000000000000e+00 0.000000000000000e+00 0.000000000000000e+00
9.651883371524551e-06 -2.391016689956126e-06 -6.813237386851822e-03
-9.651883371512849e-06 -2.391016689954872e-06 -6.813237386851842e-03
-9.651883371513382e-06 2.391016689954279e-06 -6.813237386851846e-03
9.651883371524734e-06 2.391016689954733e-06 -6.813237386851818e-03
0.000000000000000e+00 0.000000000000000e+00 0.000000000000000e+00
0.000000000000000e+00 0.000000000000000e+00 0.000000000000000e+00
0.000000000000000e+00 0.000000000000000e+00 0.000000000000000e+00
0.000000000000000e+00 0.000000000000000e+00 0.000000000000000e+00
5.859773929105250e-18 1.085654591240199e-06 -6.872275701020902e-03
-1.193455315536385e-05 1.693007103324533e-18 -6.735645300872299e-03
5.727425031096765e-18 -1.085654591242782e-06 -6.872275701020900e-03
1.193455315537530e-05 4.350572975334900e-19 -6.735645300872278e-03
-6.507038377674665e-06 1.106344489548393e-06 -3.420486052388221e-03
6.507038377676380e-06 1.106344489545286e-06 -3.420486052388229e-03
6.507038377676031e-06 -1.106344489550598e-06 -3.420486052388229e-03
-6.507038377674366e-06 -1.106344489552008e-06 -3.420486052388222e-03
-9.465566403850058e-06 4.330191245041594e-19 -3.423210898559730e-03
9.465566403852045e-06 -3.879675596220713e-18 -3.423210898559736e-03
5.675120746603812e-19 -7.270777440301042e-07 -3.430033229126597e-03
7.939345693732964e-19 7.270777440340574e-07 -3.430033229126596e-03
0.000000000000000e+00 0.000000000000000e+00 0.000000000000000e+00
5.816681127913687e-18 -1.865060670735563e-18 -6.907298498532390e-03
8.879287567389220e-19 2.364571881599184e-18 -3.428549781019984e-03
0.000000000000000e+00 0.000000000000000e+00 0.000000000000000e+00
0.000000000000000e+00 0.000000000000000e+00 0.000000000000000e+00
0.000000000000000e+00 0.000000000000000e+00 0.000000000000000e+00
0.000000000000000e+00 0.000000000000000e+00 0.000000000000000e+00
9.651883371524734e-06 2.391016689954733e-06 -6.813237386851818e-03
-9.651883371513382e-06 2.391016689954279e-06 -6.813237386851846e-03
-1.066032715101603e-05 -1.067423073259929e-06 -6.839791533963373e-03
1.066032715102766e-05 -1.067423073258383e-06 -6.839791533963349e-03
0.000000000000000e+00 0.000000000000000e+00 0.000000000000000e+00
0.000000000000000e+00 0.000000000000000e+00 0.000000000000000e+00
0.000000000000000e+00 0.000000000000000e+00 0.000000000000000e+00
0.000000000000000e+00 0.000000000000000e+00 0.000000000000000e+00
5.727425031096765e-18 -1.085654591242782e-06 -6.872275701020900e-03
-7.621324532538449e-06 2.721915094126023e-06 -6.897468009609275e-03
5.799634589850194e-18 1.897422302128250e-06 -6.865614187600746e-03
7.621324532549851e-06 2.721915094128035e-06 -6.897468009609243e-03
-6.507038377674366e-06 -1.106344489552008e-06 -3.420486052388222e-03
6.507038377676031e-06 -1.106344489550598e-06 -3.420486052388229e-03
5.814194385333336e-06 1.101797683833211e-06 -3.419856498896142e-03
-5.814194385332221e-06 1.101797683834573e-06 -3.419856498896134e-03
-3.375299353413213e-06 -1.107481190982703e-06 -3.417603817843692e-03
3.375299353414431e-06 -1.107481190977392e-06 -3.417603817843699e-03
7.939345693732964e-19 7.270777440340574e-07 -3.430033229126596e-03
4.747619669360353e-19 8.368277622368226e-07 -3.430513906386881e-03
0.000000000000000e+00 0.000000000000000e+00 0.000000000000000e+00
5.689202669351915e-18 -8.827126635201951e-07 -6.835587525154373e-03
5.631975005853046e-19 1.118054120600400e-06 -3.431636846548278e-03
0.000000000000000e+00 0.000000000000000e+00 0.000000000000000e+00
0.000000000000000e+00 0.000000000000000e+00 0.000000000000000e+00
0.000000000000000e+00 0.000000000000000e+00 0.000000000000000e+00
0.000000000000000e+00 0.000000000000000e+00 0.000000000000000e+00
1.066032715102766e-05 -1.067423073258383e-06 -6.839791533963349e-03
-1.066032715101603e-05 -1.067423073259929e-06 -6.839791533963373e-03
-1.635793017116022e-05 1.135584689477769e-05 -6.807820568212182e-03
1.635793017117281e-05 1.135584689477777e-05 -6.807820568212158e-03
0.000000000000000e+00 0.000000000000000e+00 0.000000000000000e+00
0.000000000000000e+00 0.000000000000000e+00 0.000000000000000e+00
0.000000000000000e+00 0.000000000000000e+00 0.000000000000000e+00
0.000000000000000e+00 0.000000000000000e+00 0.000000000000000e+00
5.799634589850194e-18 1.897422302128250e-06 -6.865614187600746e-03
-1.487161957965400e-05 -8.863338078329254e-07 -6.767483780101793e-03
6.242632821264193e-18 -2.564205491584964e-06 -6.868686209129279e-03
1.487161957966602e-05 -8.863338078324833e-07 -6.767483780101774e-03
-5.814194385332221e-06 1.101797683834573e-06 -3.419856498896134e-03
5.814194385333336e-06 1.101797683833211e-06 -3.419856498896142e-03
1.134440068717692e-05 -2.811238851474147e-06 -3.414953700538847e-03
-1.134440068717212e-05 -2.811238851457836e-06 -3.414953700538838e-03
-9.808851990796739e-06 1.780781881482102e-06 -3.421040868732274e-03
9.808851990798810e-06 1.780781881471023e-06 -3.421040868732282e-03
4.747619669360353e-19 8.368277622368226e-07 -3.430513906386881e-03
2.271318848062406e-18 3.903620589165668e-06 -3.434171264099284e-03
0.000000000000000e+00 0.000000000000000e+00 0.000000000000000e+00
6.002498980717599e-18 2.816381096005633e-06 -6.898074233784290e-03
9.146897039162376e-19 1.294862106054764e-06 -3.430185136338512e-03
        </DataArray>
      </PointData>

    </Piece>
  </UnstructuredGrid>
</VTKFile>
