<?xml version="1.0" ?> 
<!-- 
# vtk DataFile Version 3.0
-->
<VTKFile type="UnstructuredGrid" version="0.1" compressor="vtkZLibDataCompressor" byte_order="LittleEndian">
  <UnstructuredGrid>
    <FieldData>
      <DataArray type="Float64" Name="TIME" NumberOfTuples="1" format="ascii">
1.000000000000000e-01 
      </DataArray>
    </FieldData>

    <Piece NumberOfPoints="116" NumberOfCells="17" >
      <Points>
        <DataArray type="Float64" NumberOfComponents="3" format="ascii">
5.000000000000000e-01 -1.666666666670000e-01 -4.166666666670000e-01
5.000000000000000e-01 -3.333333333330000e-01 -2.500000000000000e-01
5.000000000000000e-01 -1.666666666670000e-01 -8.333333333329999e-02
5.000000000000000e-01 0.000000000000000e+00 -2.500000000000000e-01
-5.000000000000000e-01 -1.666666666670000e-01 -4.166666666670000e-01
-5.000000000000000e-01 -3.333333333330000e-01 -2.500000000000000e-01
-5.000000000000000e-01 -1.666666666670000e-01 -8.333333333329999e-02
-5.000000000000000e-01 0.000000000000000e+00 -2.500000000000000e-01
5.000000000000000e-01 1.666666666670000e-01 -4.166666666670000e-01
5.000000000000000e-01 0.000000000000000e+00 -2.500000000000000e-01
5.000000000000000e-01 1.666666666670000e-01 -8.333333333329999e-02
5.000000000000000e-01 3.333333333330000e-01 -2.500000000000000e-01
-5.000000000000000e-01 1.666666666670000e-01 -4.166666666670000e-01
-5.000000000000000e-01 0.000000000000000e+00 -2.500000000000000e-01
-5.000000000000000e-01 1.666666666670000e-01 -8.333333333329999e-02
-5.000000000000000e-01 3.333333333330000e-01 -2.500000000000000e-01
5.000000000000000e-01 -3.333333333330000e-01 -2.500000000000000e-01
5.000000000000000e-01 -5.000000000000000e-01 -8.333333333329999e-02
5.000000000000000e-01 -3.333333333330000e-01 8.333333333329999e-02
5.000000000000000e-01 -1.666666666670000e-01 -8.333333333329999e-02
-5.000000000000000e-01 -3.333333333330000e-01 -2.500000000000000e-01
-5.000000000000000e-01 -5.000000000000000e-01 -8.333333333329999e-02
-5.000000000000000e-01 -3.333333333330000e-01 8.333333333329999e-02
-5.000000000000000e-01 -1.666666666670000e-01 -8.333333333329999e-02
5.000000000000000e-01 0.000000000000000e+00 -2.500000000000000e-01
5.000000000000000e-01 -1.666666666670000e-01 -8.333333333329999e-02
5.000000000000000e-01 0.000000000000000e+00 8.333333333329999e-02
5.000000000000000e-01 1.666666666670000e-01 -8.333333333329999e-02
-5.000000000000000e-01 0.000000000000000e+00 -2.500000000000000e-01
-5.000000000000000e-01 -1.666666666670000e-01 -8.333333333329999e-02
-5.000000000000000e-01 0.000000000000000e+00 8.333333333329999e-02
-5.000000000000000e-01 1.666666666670000e-01 -8.333333333329999e-02
5.000000000000000e-01 3.333333333330000e-01 -2.500000000000000e-01
5.000000000000000e-01 1.666666666670000e-01 -8.333333333329999e-02
5.000000000000000e-01 3.333333333330000e-01 8.333333333329999e-02
5.000000000000000e-01 5.000000000000000e-01 -8.333333333329999e-02
-5.000000000000000e-01 3.333333333330000e-01 -2.500000000000000e-01
-5.000000000000000e-01 1.666666666670000e-01 -8.333333333329999e-02
-5.000000000000000e-01 3.333333333330000e-01 8.333333333329999e-02
-5.000000000000000e-01 5.000000000000000e-01 -8.333333333329999e-02
5.000000000000000e-01 -1.666666666670000e-01 -8.333333333329999e-02
5.000000000000000e-01 -3.333333333330000e-01 8.333333333329999e-02
5.000000000000000e-01 -1.666666666670000e-01 2.500000000000000e-01
5.000000000000000e-01 0.000000000000000e+00 8.333333333329999e-02
-5.000000000000000e-01 -1.666666666670000e-01 -8.333333333329999e-02
-5.000000000000000e-01 -3.333333333330000e-01 8.333333333329999e-02
-5.000000000000000e-01 -1.666666666670000e-01 2.500000000000000e-01
-5.000000000000000e-01 0.000000000000000e+00 8.333333333329999e-02
5.000000000000000e-01 1.666666666670000e-01 -8.333333333329999e-02
5.000000000000000e-01 0.000000000000000e+00 8.333333333329999e-02
5.000000000000000e-01 1.666666666670000e-01 2.500000000000000e-01
5.000000000000000e-01 3.333333333330000e-01 8.333333333329999e-02
-5.000000000000000e-01 1.666666666670000e-01 -8.333333333329999e-02
-5.000000000000000e-01 0.000000000000000e+00 8.333333333329999e-02
-5.000000000000000e-01 1.666666666670000e-01 2.500000000000000e-01
-5.000000000000000e-01 3.333333333330000e-01 8.333333333329999e-02
5.000000000000000e-01 5.000000000000000e-01 -4.166666666670000e-01
5.000000000000000e-01 5.000000000000000e-01 -8.333333333329999e-02
5.000000000000000e-01 3.333333333330000e-01 -2.500000000000000e-01
-5.000000000000000e-01 5.000000000000000e-01 -4.166666666670000e-01
-5.000000000000000e-01 5.000000000000000e-01 -8.333333333329999e-02
-5.000000000000000e-01 3.333333333330000e-01 -2.500000000000000e-01
5.000000000000000e-01 5.000000000000000e-01 -8.333333333329999e-02
5.000000000000000e-01 5.000000000000000e-01 2.500000000000000e-01
5.000000000000000e-01 3.333333333330000e-01 8.333333333329999e-02
-5.000000000000000e-01 5.000000000000000e-01 -8.333333333329999e-02
-5.000000000000000e-01 5.000000000000000e-01 2.500000000000000e-01
-5.000000000000000e-01 3.333333333330000e-01 8.333333333329999e-02
5.000000000000000e-01 -5.000000000000000e-01 -4.166666666670000e-01
5.000000000000000e-01 -3.333333333330000e-01 -2.500000000000000e-01
5.000000000000000e-01 -5.000000000000000e-01 -8.333333333329999e-02
-5.000000000000000e-01 -5.000000000000000e-01 -4.166666666670000e-01
-5.000000000000000e-01 -3.333333333330000e-01 -2.500000000000000e-01
-5.000000000000000e-01 -5.000000000000000e-01 -8.333333333329999e-02
5.000000000000000e-01 -5.000000000000000e-01 -8.333333333329999e-02
5.000000000000000e-01 -3.333333333330000e-01 8.333333333329999e-02
5.000000000000000e-01 -5.000000000000000e-01 2.500000000000000e-01
-5.000000000000000e-01 -5.000000000000000e-01 -8.333333333329999e-02
-5.000000000000000e-01 -3.333333333330000e-01 8.333333333329999e-02
-5.000000000000000e-01 -5.000000000000000e-01 2.500000000000000e-01
5.000000000000000e-01 -3.333333333330000e-01 8.333333333329999e-02
5.000000000000000e-01 -1.666666666670000e-01 2.500000000000000e-01
5.000000000000000e-01 -5.000000000000000e-01 2.500000000000000e-01
-5.000000000000000e-01 -3.333333333330000e-01 8.333333333329999e-02
-5.000000000000000e-01 -1.666666666670000e-01 2.500000000000000e-01
-5.000000000000000e-01 -5.000000000000000e-01 2.500000000000000e-01
5.000000000000000e-01 0.000000000000000e+00 8.333333333329999e-02
5.000000000000000e-01 1.666666666670000e-01 2.500000000000000e-01
5.000000000000000e-01 -1.666666666670000e-01 2.500000000000000e-01
-5.000000000000000e-01 0.000000000000000e+00 8.333333333329999e-02
-5.000000000000000e-01 1.666666666670000e-01 2.500000000000000e-01
-5.000000000000000e-01 -1.666666666670000e-01 2.500000000000000e-01
5.000000000000000e-01 3.333333333330000e-01 8.333333333329999e-02
5.000000000000000e-01 5.000000000000000e-01 2.500000000000000e-01
5.000000000000000e-01 1.666666666670000e-01 2.500000000000000e-01
-5.000000000000000e-01 3.333333333330000e-01 8.333333333329999e-02
-5.000000000000000e-01 5.000000000000000e-01 2.500000000000000e-01
-5.000000000000000e-01 1.666666666670000e-01 2.500000000000000e-01
5.000000000000000e-01 1.666666666670000e-01 -4.166666666670000e-01
5.000000000000000e-01 5.000000000000000e-01 -4.166666666670000e-01
5.000000000000000e-01 3.333333333330000e-01 -2.500000000000000e-01
-5.000000000000000e-01 1.666666666670000e-01 -4.166666666670000e-01
-5.000000000000000e-01 5.000000000000000e-01 -4.166666666670000e-01
-5.000000000000000e-01 3.333333333330000e-01 -2.500000000000000e-01
5.000000000000000e-01 -1.666666666670000e-01 -4.166666666670000e-01
5.000000000000000e-01 1.666666666670000e-01 -4.166666666670000e-01
5.000000000000000e-01 0.000000000000000e+00 -2.500000000000000e-01
-5.000000000000000e-01 -1.666666666670000e-01 -4.166666666670000e-01
-5.000000000000000e-01 1.666666666670000e-01 -4.166666666670000e-01
-5.000000000000000e-01 0.000000000000000e+00 -2.500000000000000e-01
5.000000000000000e-01 -5.000000000000000e-01 -4.166666666670000e-01
5.000000000000000e-01 -1.666666666670000e-01 -4.166666666670000e-01
5.000000000000000e-01 -3.333333333330000e-01 -2.500000000000000e-01
-5.000000000000000e-01 -5.000000000000000e-01 -4.166666666670000e-01
-5.000000000000000e-01 -1.666666666670000e-01 -4.166666666670000e-01
-5.000000000000000e-01 -3.333333333330000e-01 -2.500000000000000e-01
        </DataArray>
      </Points>

      <Cells>
        <DataArray type="Int32" Name="connectivity" format="ascii">
0 1 2 3 4 5 6 7 8 9 10 11 12 13 14 15 16 17 18 19 20 21 22 23 24 25 26 27 28 29 30 31 32 33 34 35 36 37 38 39 40 41 42 43 44 45 46 47 48 49 50 51 52 53 54 55 56 57 58 59 60 61 62 63 64 65 66 67 68 69 70 71 72 73 74 75 76 77 78 79 80 81 82 83 84 85 86 87 88 89 90 91 92 93 94 95 96 97 98 99 100 101 102 103 104 105 106 107 108 109 110 111 112 113 114 115 
        </DataArray>
        <DataArray type="Int32" Name="offsets" format="ascii">
8 16 24 32 40 48 56 62 68 74 80 86 92 98 104 110 116 
        </DataArray>
        <DataArray type="UInt8" Name="types" format="ascii">
12 12 12 12 12 12 12 13 13 13 13 13 13 13 13 13 13 
        </DataArray>
      </Cells>

  <PointData>
        <DataArray type="Float64" Name="displacement" NumberOfComponents="3" format="ascii">
-9.916172561577772e-06 -3.541872657873798e-07 -5.925827209590595e-03
-7.890193234736259e-06 -2.194387574514678e-07 -7.638124225338788e-03
-2.542807644960051e-06 1.158914577899497e-07 -9.317975899227549e-03
-1.030509964752833e-05 -8.855235931315523e-19 -7.633350168712978e-03
9.916172561584894e-06 -3.541872657903121e-07 -5.925827209590579e-03
7.890193234751998e-06 -2.194387574486111e-07 -7.638124225338764e-03
2.542807644984461e-06 1.158914577913697e-07 -9.317975899227521e-03
1.030509964754385e-05 -6.581961492371137e-19 -7.633350168712953e-03
-9.916172561578343e-06 3.541872657863387e-07 -5.925827209590604e-03
-1.030509964752833e-05 -8.855235931315523e-19 -7.633350168712978e-03
-2.542807644960429e-06 -1.158914577913555e-07 -9.317975899227551e-03
-7.890193234738299e-06 2.194387574467788e-07 -7.638124225338787e-03
9.916172561584703e-06 3.541872657858471e-07 -5.925827209590568e-03
1.030509964754385e-05 -6.581961492371137e-19 -7.633350168712953e-03
2.542807644985286e-06 -1.158914577925702e-07 -9.317975899227518e-03
7.890193234753794e-06 2.194387574521666e-07 -7.638124225338762e-03
-7.890193234736259e-06 -2.194387574514678e-07 -7.638124225338788e-03
-2.883027144772794e-06 2.868578946399620e-06 -9.316886957427157e-03
-1.650989192011339e-06 1.476327331245886e-06 -1.101340827598374e-02
-2.542807644960051e-06 1.158914577899497e-07 -9.317975899227549e-03
7.890193234751998e-06 -2.194387574486111e-07 -7.638124225338764e-03
2.883027144795830e-06 2.868578946404810e-06 -9.316886957427136e-03
1.650989192044461e-06 1.476327331246097e-06 -1.101340827598371e-02
2.542807644984461e-06 1.158914577913697e-07 -9.317975899227521e-03
-1.030509964752833e-05 -8.855235931315523e-19 -7.633350168712978e-03
-2.542807644960051e-06 1.158914577899497e-07 -9.317975899227549e-03
-1.740744452151929e-06 -2.246546551942600e-18 -1.101306075243905e-02
-2.542807644960429e-06 -1.158914577913555e-07 -9.317975899227551e-03
1.030509964754385e-05 -6.581961492371137e-19 -7.633350168712953e-03
2.542807644984461e-06 1.158914577913697e-07 -9.317975899227521e-03
1.740744452187346e-06 -1.414149648549516e-18 -1.101306075243902e-02
2.542807644985286e-06 -1.158914577925702e-07 -9.317975899227518e-03
-7.890193234738299e-06 2.194387574467788e-07 -7.638124225338787e-03
-2.542807644960429e-06 -1.158914577913555e-07 -9.317975899227551e-03
-1.650989192012046e-06 -1.476327331248273e-06 -1.101340827598374e-02
-2.883027144777852e-06 -2.868578946404200e-06 -9.316886957427158e-03
7.890193234753794e-06 2.194387574521666e-07 -7.638124225338762e-03
2.542807644985286e-06 -1.158914577925702e-07 -9.317975899227518e-03
1.650989192046337e-06 -1.476327331250870e-06 -1.101340827598371e-02
2.883027144802213e-06 -2.868578946400234e-06 -9.316886957427127e-03
-2.542807644960051e-06 1.158914577899497e-07 -9.317975899227549e-03
-1.650989192011339e-06 1.476327331245886e-06 -1.101340827598374e-02
-1.192292968119268e-06 4.728114823454002e-07 -1.270479731520405e-02
-1.740744452151929e-06 -2.246546551942600e-18 -1.101306075243905e-02
2.542807644984461e-06 1.158914577913697e-07 -9.317975899227521e-03
1.650989192044461e-06 1.476327331246097e-06 -1.101340827598371e-02
1.192292968162873e-06 4.728114823567370e-07 -1.270479731520403e-02
1.740744452187346e-06 -1.414149648549516e-18 -1.101306075243902e-02
-2.542807644960429e-06 -1.158914577913555e-07 -9.317975899227551e-03
-1.740744452151929e-06 -2.246546551942600e-18 -1.101306075243905e-02
-1.192292968118182e-06 -4.728114823487966e-07 -1.270479731520405e-02
-1.650989192012046e-06 -1.476327331248273e-06 -1.101340827598374e-02
2.542807644985286e-06 -1.158914577925702e-07 -9.317975899227518e-03
1.740744452187346e-06 -1.414149648549516e-18 -1.101306075243902e-02
1.192292968164626e-06 -4.728114823570760e-07 -1.270479731520402e-02
1.650989192046337e-06 -1.476327331250870e-06 -1.101340827598371e-02
-2.265817306464216e-05 4.214045252875115e-06 -5.931943411504415e-03
-2.883027144777852e-06 -2.868578946404200e-06 -9.316886957427158e-03
-7.890193234738299e-06 2.194387574467788e-07 -7.638124225338787e-03
2.265817306465008e-05 4.214045252870814e-06 -5.931943411504404e-03
2.883027144802213e-06 -2.868578946400234e-06 -9.316886957427127e-03
7.890193234753794e-06 2.194387574521666e-07 -7.638124225338762e-03
-2.883027144777852e-06 -2.868578946404200e-06 -9.316886957427158e-03
-1.003132407520201e-06 -1.657508920130905e-06 -1.270558340917834e-02
-1.650989192012046e-06 -1.476327331248273e-06 -1.101340827598374e-02
2.883027144802213e-06 -2.868578946400234e-06 -9.316886957427127e-03
1.003132407564786e-06 -1.657508920136561e-06 -1.270558340917830e-02
1.650989192046337e-06 -1.476327331250870e-06 -1.101340827598371e-02
-2.265817306463897e-05 -4.214045252870217e-06 -5.931943411504424e-03
-7.890193234736259e-06 -2.194387574514678e-07 -7.638124225338788e-03
-2.883027144772794e-06 2.868578946399620e-06 -9.316886957427157e-03
2.265817306464693e-05 -4.214045252872075e-06 -5.931943411504399e-03
7.890193234751998e-06 -2.194387574486111e-07 -7.638124225338764e-03
2.883027144795830e-06 2.868578946404810e-06 -9.316886957427136e-03
-2.883027144772794e-06 2.868578946399620e-06 -9.316886957427157e-03
-1.650989192011339e-06 1.476327331245886e-06 -1.101340827598374e-02
-1.003132407520184e-06 1.657508920137926e-06 -1.270558340917834e-02
2.883027144795830e-06 2.868578946404810e-06 -9.316886957427136e-03
1.650989192044461e-06 1.476327331246097e-06 -1.101340827598371e-02
1.003132407564321e-06 1.657508920124493e-06 -1.270558340917830e-02
-1.650989192011339e-06 1.476327331245886e-06 -1.101340827598374e-02
-1.192292968119268e-06 4.728114823454002e-07 -1.270479731520405e-02
-1.003132407520184e-06 1.657508920137926e-06 -1.270558340917834e-02
1.650989192044461e-06 1.476327331246097e-06 -1.101340827598371e-02
1.192292968162873e-06 4.728114823567370e-07 -1.270479731520403e-02
1.003132407564321e-06 1.657508920124493e-06 -1.270558340917830e-02
-1.740744452151929e-06 -2.246546551942600e-18 -1.101306075243905e-02
-1.192292968118182e-06 -4.728114823487966e-07 -1.270479731520405e-02
-1.192292968119268e-06 4.728114823454002e-07 -1.270479731520405e-02
1.740744452187346e-06 -1.414149648549516e-18 -1.101306075243902e-02
1.192292968164626e-06 -4.728114823570760e-07 -1.270479731520402e-02
1.192292968162873e-06 4.728114823567370e-07 -1.270479731520403e-02
-1.650989192012046e-06 -1.476327331248273e-06 -1.101340827598374e-02
-1.003132407520201e-06 -1.657508920130905e-06 -1.270558340917834e-02
-1.192292968118182e-06 -4.728114823487966e-07 -1.270479731520405e-02
1.650989192046337e-06 -1.476327331250870e-06 -1.101340827598371e-02
1.003132407564786e-06 -1.657508920136561e-06 -1.270558340917830e-02
1.192292968164626e-06 -4.728114823570760e-07 -1.270479731520402e-02
-9.916172561578343e-06 3.541872657863387e-07 -5.925827209590604e-03
-2.265817306464216e-05 4.214045252875115e-06 -5.931943411504415e-03
-7.890193234738299e-06 2.194387574467788e-07 -7.638124225338787e-03
9.916172561584703e-06 3.541872657858471e-07 -5.925827209590568e-03
2.265817306465008e-05 4.214045252870814e-06 -5.931943411504404e-03
7.890193234753794e-06 2.194387574521666e-07 -7.638124225338762e-03
-9.916172561577772e-06 -3.541872657873798e-07 -5.925827209590595e-03
-9.916172561578343e-06 3.541872657863387e-07 -5.925827209590604e-03
-1.030509964752833e-05 -8.855235931315523e-19 -7.633350168712978e-03
9.916172561584894e-06 -3.541872657903121e-07 -5.925827209590579e-03
9.916172561584703e-06 3.541872657858471e-07 -5.925827209590568e-03
1.030509964754385e-05 -6.581961492371137e-19 -7.633350168712953e-03
-2.265817306463897e-05 -4.214045252870217e-06 -5.931943411504424e-03
-9.916172561577772e-06 -3.541872657873798e-07 -5.925827209590595e-03
-7.890193234736259e-06 -2.194387574514678e-07 -7.638124225338788e-03
2.265817306464693e-05 -4.214045252872075e-06 -5.931943411504399e-03
9.916172561584894e-06 -3.541872657903121e-07 -5.925827209590579e-03
7.890193234751998e-06 -2.194387574486111e-07 -7.638124225338764e-03
        </DataArray>
      </PointData>

    </Piece>
  </UnstructuredGrid>
</VTKFile>
