<?xml version="1.0" ?> 
<!-- 
# vtk DataFile Version 3.0
-->
<VTKFile type="UnstructuredGrid" version="0.1" compressor="vtkZLibDataCompressor" byte_order="LittleEndian">
  <UnstructuredGrid>
    <FieldData>
      <DataArray type="Float64" Name="TIME" NumberOfTuples="1" format="ascii">
3.000000000000000e+00 
      </DataArray>
    </FieldData>

    <Piece NumberOfPoints="168" NumberOfCells="28" >
      <Points>
        <DataArray type="Float64" NumberOfComponents="3" format="ascii">
1.000000000000000e-01 3.000000000000000e-01 1.750000000000000e+01
1.657058208020203e-01 2.999999999999999e-01 1.753441733470579e+01
2.314116416040352e-01 3.000000000000000e-01 1.756883466941158e+01
2.971174624060454e-01 3.000000000000000e-01 1.760325200411739e+01
3.628232832080518e-01 3.000000000000000e-01 1.763766933882320e+01
4.285291040100552e-01 3.000000000000000e-01 1.767208667352902e+01
1.053627568438915e+00 3.000000000000000e-01 1.799951920251567e+01
1.072902054751131e+00 3.000000000000000e-01 1.800961536201254e+01
1.092176541063347e+00 3.000000000000000e-01 1.801971152150941e+01
1.111451027375564e+00 3.000000000000000e-01 1.802980768100627e+01
1.130725513687782e+00 3.000000000000000e-01 1.803990384050314e+01
1.150000000000000e+00 3.000000000000000e-01 1.805000000000000e+01
8.155693453509689e-01 3.000000000000000e-01 1.787482203804104e+01
8.631809899685559e-01 3.000000000000000e-01 1.789976147093597e+01
9.107926345861442e-01 3.000000000000000e-01 1.792470090383090e+01
9.584042792037344e-01 3.000000000000000e-01 1.794964033672582e+01
1.006015923821326e+00 3.000000000000000e-01 1.797457976962075e+01
1.053627568438921e+00 3.000000000000000e-01 1.799951920251567e+01
4.285291040100551e-01 3.000000000000000e-01 1.767208667352902e+01
4.719612455694210e-01 3.000000000000000e-01 1.769483684291727e+01
5.153933871287860e-01 3.000000000000000e-01 1.771758701230552e+01
5.588255286881505e-01 3.000000000000000e-01 1.774033718169377e+01
6.022576702475146e-01 3.000000000000000e-01 1.776308735108202e+01
6.456898118068788e-01 3.000000000000000e-01 1.778583752047027e+01
6.456898118068778e-01 3.000000000000000e-01 1.778583752047028e+01
6.796657185156949e-01 3.000000000000000e-01 1.780363442398443e+01
7.136416252245125e-01 3.000000000000000e-01 1.782143132749858e+01
7.476175319333302e-01 3.000000000000000e-01 1.783922823101273e+01
7.815934386421484e-01 3.000000000000000e-01 1.785702513452689e+01
8.155693453509669e-01 2.999999999999999e-01 1.787482203804103e+01
1.150000000000000e+00 3.000000000000000e-01 1.805000000000000e+01
1.160969959246526e+00 3.000000000000000e-01 1.805574616912913e+01
1.171939918493052e+00 3.000000000000000e-01 1.806149233825825e+01
1.182909877739577e+00 3.000000000000000e-01 1.806723850738738e+01
1.193879836986102e+00 3.000000000000000e-01 1.807298467651651e+01
1.204849796232627e+00 2.999999999999999e-01 1.807873084564564e+01
1.204849796232627e+00 3.000000000000000e-01 1.807873084564563e+01
1.226439972659219e+00 3.000000000000000e-01 1.809003998567860e+01
1.248030149085812e+00 3.000000000000000e-01 1.810134912571157e+01
1.269620325512403e+00 3.000000000000000e-01 1.811265826574455e+01
1.291210501938995e+00 3.000000000000000e-01 1.812396740577752e+01
1.312800678365585e+00 3.000000000000000e-01 1.813527654581049e+01
1.995978191111751e+00 2.999999999999999e-01 1.849313143343955e+01
1.996782552889401e+00 3.000000000000000e-01 1.849355276579927e+01
1.997586914667051e+00 3.000000000000000e-01 1.849397409815900e+01
1.998391276444701e+00 3.000000000000000e-01 1.849439543051871e+01
1.999195638222350e+00 3.000000000000000e-01 1.849481676287844e+01
2.000000000000000e+00 2.999999999999999e-01 1.849523809523815e+01
1.312800678365585e+00 3.000000000000000e-01 1.813527654581049e+01
1.368399463011551e+00 3.000000000000000e-01 1.816439971872027e+01
1.423998247657513e+00 3.000000000000000e-01 1.819352289163007e+01
1.479597032303474e+00 3.000000000000000e-01 1.822264606453987e+01
1.535195816949434e+00 3.000000000000000e-01 1.825176923744967e+01
1.590794601595392e+00 3.000000000000000e-01 1.828089241035947e+01
1.590794601595393e+00 3.000000000000000e-01 1.828089241035947e+01
1.671831319498662e+00 3.000000000000000e-01 1.832334021497549e+01
1.752868037401931e+00 3.000000000000000e-01 1.836578801959151e+01
1.833904755305201e+00 3.000000000000000e-01 1.840823582420753e+01
1.914941473208474e+00 3.000000000000000e-01 1.845068362882354e+01
1.995978191111751e+00 3.000000000000000e-01 1.849313143343955e+01
7.282912294134959e-01 6.852366693390888e-01 2.068414601579194e+01
7.241106364536576e-01 6.896637782823790e-01 2.069023732214323e+01
7.199018095239137e-01 6.940645506611034e-01 2.069632855855654e+01
7.156648342514392e-01 6.984387797529737e-01 2.070241972387501e+01
7.113997962634095e-01 7.027862588357019e-01 2.070851081694178e+01
7.071067811870000e-01 7.071067811870000e-01 2.071460183660000e+01
8.076108102509371e-01 5.890449378240568e-01 2.055929315811433e+01
7.927338861635762e-01 6.090758948924583e-01 2.058426556285371e+01
7.773575691204947e-01 6.287247829919193e-01 2.060923713066072e+01
7.614877560373492e-01 6.479773657086826e-01 2.063420778186579e+01
7.451303438297973e-01 6.668194066289913e-01 2.065917743679938e+01
7.282912294134961e-01 6.852366693390888e-01 2.068414601579194e+01
9.973931080192994e-01 7.070272402877290e-02 1.999999998885323e+01
9.896465936461449e-01 1.411169207886336e-01 2.007091132471544e+01
9.768954893416769e-01 2.108098393097664e-01 2.014182911711733e+01
9.592748335446842e-01 2.794554679617731e-01 2.021275154163867e+01
9.369196646939564e-01 3.467277951142557e-01 2.028367677385926e+01
9.099650212282825e-01 4.123008091368161e-01 2.035460298935891e+01
9.099650212282833e-01 4.123008091368143e-01 2.035460298935891e+01
8.923652767420709e-01 4.492500558628307e-01 2.039554298713703e+01
8.733040123845350e-01 4.854617916753027e-01 2.043648235377986e+01
8.528071991723706e-01 5.208733169934909e-01 2.047742073840917e+01
8.309008081222728e-01 5.554219322366558e-01 2.051835779014673e+01
8.076108102509362e-01 5.890449378240580e-01 2.055929315811433e+01
2.527815540384706e-01 9.667300861487246e-01 2.124416147965651e+01
2.030327252253816e-01 9.785719719161664e-01 2.129533559119451e+01
1.527576794466600e-01 9.878706373921692e-01 2.134650718439559e+01
1.020788926706359e-01 9.945753513695786e-01 2.139767557386203e+01
5.111884086563925e-02 9.986353826412403e-01 2.144884007419607e+01
0.000000000000000e+00 1.000000000000000e+00 2.150000000000000e+01
5.837516764426333e-01 8.114136823547502e-01 2.087643344895821e+01
5.594095119999114e-01 8.282437222889643e-01 2.090605072726628e+01
5.345789739294943e-01 8.443510778503559e-01 2.093566890849279e+01
5.092838088901573e-01 8.597259128507986e-01 2.096528785974713e+01
4.835477635406755e-01 8.743583911021644e-01 2.099490744813868e+01
4.573945845398238e-01 8.882386764163268e-01 2.102452754077683e+01
7.071067811870000e-01 7.071067811870000e-01 2.071460183660000e+01
6.838453183460229e-01 7.295942079346670e-01 2.074696464333311e+01
6.598480721057267e-01 7.512814538456227e-01 2.077932938144144e+01
6.351460468114820e-01 7.721556764995201e-01 2.081169587741902e+01
6.097702468086593e-01 7.922040334760124e-01 2.084406395775992e+01
5.837516764426296e-01 8.114136823547528e-01 2.087643344895821e+01
4.573945845398235e-01 8.882386764163269e-01 2.102452754077683e+01
4.178924981901254e-01 9.074170705400918e-01 2.106845442881400e+01
3.776027030257300e-01 9.248874889763143e-01 2.111238170013888e+01
3.366026479860483e-01 9.406178513238939e-01 2.115630892133312e+01
2.949697820104922e-01 9.545760771817305e-01 2.120023565897844e+01
2.527815540384732e-01 9.667300861487240e-01 2.124416147965651e+01
6.456898117728429e-01 3.000000000000000e-01 2.278583752045245e+01
6.796657184913943e-01 3.000000000000000e-01 2.280363442397170e+01
7.136416252099458e-01 3.000000000000000e-01 2.282143132749095e+01
7.476175319284974e-01 3.000000000000000e-01 2.283922823101020e+01
7.815934386470498e-01 2.999999999999999e-01 2.285702513452945e+01
8.155693453656024e-01 3.000000000000000e-01 2.287482203804870e+01
4.285291039950258e-01 3.000000000000000e-01 2.267208667352115e+01
4.719612455505902e-01 3.000000000000000e-01 2.269483684290741e+01
5.153933871061536e-01 3.000000000000000e-01 2.271758701229367e+01
5.588255286617166e-01 2.999999999999999e-01 2.274033718167993e+01
6.022576702172793e-01 3.000000000000000e-01 2.276308735106619e+01
6.456898117728417e-01 2.999999999999999e-01 2.278583752045245e+01
1.000000000000000e-01 3.000000000000000e-01 2.250000000000000e+01
1.657058207990139e-01 3.000000000000000e-01 2.253441733470421e+01
2.314116415980225e-01 3.000000000000000e-01 2.256883466940844e+01
2.971174623970262e-01 3.000000000000000e-01 2.260325200411267e+01
3.628232831960262e-01 3.000000000000000e-01 2.263766933881691e+01
4.285291039950233e-01 3.000000000000000e-01 2.267208667352115e+01
1.053627568438918e+00 2.999999999999999e-01 2.299951920251566e+01
1.072902054751134e+00 3.000000000000000e-01 2.300961536201254e+01
1.092176541063350e+00 2.999999999999999e-01 2.301971152150940e+01
1.111451027375566e+00 3.000000000000000e-01 2.302980768100627e+01
1.130725513687783e+00 3.000000000000000e-01 2.303990384050314e+01
1.150000000000000e+00 3.000000000000000e-01 2.305000000000000e+01
8.155693453656018e-01 2.999999999999999e-01 2.287482203804870e+01
8.631809899802628e-01 2.999999999999999e-01 2.289976147094210e+01
9.107926345949260e-01 3.000000000000000e-01 2.292470090383550e+01
9.584042792095901e-01 3.000000000000000e-01 2.294964033672889e+01
1.006015923824257e+00 3.000000000000000e-01 2.297457976962229e+01
1.053627568438926e+00 3.000000000000000e-01 2.299951920251567e+01
1.312800678387913e+00 3.000000000000000e-01 2.313527654582218e+01
1.368399463031957e+00 3.000000000000000e-01 2.316439971873096e+01
1.423998247675998e+00 3.000000000000000e-01 2.319352289163975e+01
1.479597032320038e+00 3.000000000000000e-01 2.322264606454854e+01
1.535195816964076e+00 3.000000000000000e-01 2.325176923745734e+01
1.590794601608112e+00 3.000000000000000e-01 2.328089241036613e+01
1.590794601608110e+00 3.000000000000000e-01 2.328089241036613e+01
1.671831319508301e+00 2.999999999999999e-01 2.332334021498054e+01
1.752868037408492e+00 3.000000000000000e-01 2.336578801959495e+01
1.833904755308684e+00 3.000000000000000e-01 2.340823582420935e+01
1.914941473208879e+00 3.000000000000000e-01 2.345068362882376e+01
1.995978191109079e+00 3.000000000000000e-01 2.349313143343815e+01
1.995978191109072e+00 3.000000000000000e-01 2.349313143343815e+01
1.996782552887258e+00 3.000000000000000e-01 2.349355276579815e+01
1.997586914665443e+00 2.999999999999999e-01 2.349397409815815e+01
1.998391276443628e+00 3.000000000000000e-01 2.349439543051815e+01
1.999195638221814e+00 3.000000000000000e-01 2.349481676287816e+01
2.000000000000000e+00 3.000000000000000e-01 2.349523809523815e+01
1.150000000000000e+00 3.000000000000000e-01 2.305000000000000e+01
1.160969959244042e+00 2.999999999999999e-01 2.305574616912783e+01
1.171939918488083e+00 3.000000000000000e-01 2.306149233825565e+01
1.182909877732125e+00 3.000000000000000e-01 2.306723850738348e+01
1.193879836976166e+00 3.000000000000000e-01 2.307298467651130e+01
1.204849796220207e+00 3.000000000000000e-01 2.307873084563913e+01
1.204849796220205e+00 3.000000000000000e-01 2.307873084563913e+01
1.226439972653748e+00 3.000000000000000e-01 2.309003998567574e+01
1.248030149087291e+00 2.999999999999999e-01 2.310134912571235e+01
1.269620325520834e+00 3.000000000000000e-01 2.311265826574896e+01
1.291210501954375e+00 3.000000000000000e-01 2.312396740578557e+01
1.312800678387917e+00 3.000000000000000e-01 2.313527654582218e+01
        </DataArray>
      </Points>

      <Cells>
        <DataArray type="Int32" Name="connectivity" format="ascii">
0 1 2 3 4 5 6 7 8 9 10 11 12 13 14 15 16 17 18 19 20 21 22 23 24 25 26 27 28 29 30 31 32 33 34 35 36 37 38 39 40 41 42 43 44 45 46 47 48 49 50 51 52 53 54 55 56 57 58 59 60 61 62 63 64 65 66 67 68 69 70 71 72 73 74 75 76 77 78 79 80 81 82 83 84 85 86 87 88 89 90 91 92 93 94 95 96 97 98 99 100 101 102 103 104 105 106 107 108 109 110 111 112 113 114 115 116 117 118 119 120 121 122 123 124 125 126 127 128 129 130 131 132 133 134 135 136 137 138 139 140 141 142 143 144 145 146 147 148 149 150 151 152 153 154 155 156 157 158 159 160 161 162 163 164 165 166 167 
        </DataArray>
        <DataArray type="Int32" Name="offsets" format="ascii">
6 12 18 24 30 36 42 48 54 60 66 72 78 84 90 96 102 108 114 120 126 132 138 144 150 156 162 168 
        </DataArray>
        <DataArray type="UInt8" Name="types" format="ascii">
4 4 4 4 4 4 4 4 4 4 4 4 4 4 4 4 4 4 4 4 4 4 4 4 4 4 4 4 
        </DataArray>
      </Cells>

  <PointData>
        <DataArray type="Float64" Name="displacement" NumberOfComponents="3" format="ascii">
0.000000000000000e+00 0.000000000000000e+00 0.000000000000000e+00
-1.033845320778937e-03 1.189196404968174e-03 -1.573010764843730e-05
-2.217171696155262e-03 3.692680112104441e-03 2.218777060214450e-04
-3.555011489407456e-03 7.482966371191946e-03 6.839443773145604e-04
-5.052397063814107e-03 1.253257043201361e-02 1.341590842546481e-03
-6.714360782653694e-03 1.881400754435242e-02 2.165938038032778e-03
-3.172221921401341e-02 1.349029813808172e-01 1.280239799773497e-02
-3.278390668388043e-02 1.399602435706340e-01 1.306108557564301e-02
-3.386443619053803e-02 1.450979472142582e-01 1.330726183620712e-02
-3.496393476474369e-02 1.503153985206336e-01 1.354019779204307e-02
-3.608252943725443e-02 1.556119036987040e-01 1.375916445577374e-02
-3.722034723882750e-02 1.609867689574131e-01 1.396343284000423e-02
-2.011276545082097e-02 7.934689581025134e-02 8.863337669783533e-03
-2.221775247794988e-02 8.940522069265677e-02 9.729010638118041e-03
-2.442927667108519e-02 1.000004489967499e-01 1.056674096463794e-02
-2.674925272697548e-02 1.111221234166971e-01 1.136554083978680e-02
-2.917959534236858e-02 1.227597866466646e-01 1.211442245400818e-02
-3.172221921401364e-02 1.349029813808187e-01 1.280239799772431e-02
-6.714360782653694e-03 1.881400754435236e-02 2.165938038032778e-03
-7.905732907128593e-03 2.362895148491662e-02 2.788290512317104e-03
-9.172666881557823e-03 2.896217683048491e-02 3.462521060271229e-03
-1.051661613614996e-02 3.480574552809468e-02 4.180288928022691e-03
-1.193903410111263e-02 4.115171952478380e-02 4.933253361681267e-03
-1.344137420665492e-02 4.799216076758978e-02 5.713073607370944e-03
-1.344137420665470e-02 4.799216076758955e-02 5.713073607367392e-03
-1.467327291891973e-02 5.368283999008416e-02 6.336437112157256e-03
-1.595566561678463e-02 5.966745319160571e-02 6.967138136836581e-03
-1.728924808293364e-02 6.594220028614617e-02 7.601183815364010e-03
-1.867471610005123e-02 7.250328118769722e-02 8.234581281691078e-03
-2.011276545082108e-02 7.934689581025101e-02 8.863337669787086e-03
-3.722034723882750e-02 1.609867689574131e-01 1.396343284000423e-02
-3.786965275009546e-02 1.640710745688145e-01 1.407277903087589e-02
-3.851167078650231e-02 1.671619293826393e-01 1.417690347579637e-02
-3.914678369835034e-02 1.702599605444047e-01 1.427574633481754e-02
-3.977537383594232e-02 1.733657951996283e-01 1.436924776797710e-02
-4.039782354958121e-02 1.764800604938274e-01 1.445734793530562e-02
-4.039782354958166e-02 1.764800604938273e-01 1.445734793530917e-02
-4.160642034403250e-02 1.826363498269595e-01 1.461473225697318e-02
-4.279562814381421e-02 1.888325054251177e-01 1.475050685508705e-02
-4.396836179059660e-02 1.950733083225378e-01 1.486421554060513e-02
-4.512753612605014e-02 2.013635395534560e-01 1.495540212449598e-02
-4.627606599184508e-02 2.077079801521082e-01 1.502361041772460e-02
-9.400358029732958e-02 4.641525764403326e-01 2.672406719060660e-03
-9.409152099425988e-02 4.645488773601308e-01 2.638352529825028e-03
-9.417957913464226e-02 4.649454703917161e-01 2.604245753786927e-03
-9.426775486920702e-02 4.653423557823224e-01 2.570086367366997e-03
-9.435604834868361e-02 4.657395337791833e-01 2.535874346964562e-03
-9.444445972380322e-02 4.661370046295326e-01 2.501609668993154e-03
-4.627606599184531e-02 2.077079801521080e-01 1.502361041772460e-02
-4.920521031871816e-02 2.243292258805061e-01 1.509027888658565e-02
-5.213287341306105e-02 2.414233209419011e-01 1.499374867627168e-02
-5.510883383046972e-02 2.590719140175687e-01 1.472622916426758e-02
-5.818287012653989e-02 2.773566537887843e-01 1.427992972801917e-02
-6.140476085686641e-02 2.963591889368231e-01 1.364705974499714e-02
-6.140476085686686e-02 2.963591889368234e-01 1.364705974499714e-02
-6.646830115161118e-02 3.255099629541229e-01 1.237441467078071e-02
-7.210582155831391e-02 3.566118760581709e-01 1.066474930234307e-02
-7.847145376169018e-02 3.899177409039201e-01 8.493941168421060e-03
-8.571932944645688e-02 4.256803701463230e-01 5.837867797744423e-03
-9.400358029732958e-02 4.641525764403328e-01 2.672406719060660e-03
2.233336320150781e-02 1.300706964036534e-01 -5.443807267816680e-03
2.119553135225805e-02 1.282238271858056e-01 -5.492361330379225e-03
2.007434300573763e-02 1.263787622196962e-01 -5.540545891232540e-03
1.896943794312667e-02 1.245354953635355e-01 -5.588501819129732e-03
1.788045594560539e-02 1.226940204755338e-01 -5.636369982823908e-03
1.680703679435369e-02 1.208543314139009e-01 -5.684291251082385e-03
4.991374445077013e-02 1.683292407642668e-01 -4.134663188349208e-03
4.367745598368367e-02 1.606141602465565e-01 -4.471849289664931e-03
3.782608093657291e-02 1.529311885203615e-01 -4.761655491961392e-03
3.233481199807930e-02 1.452799026169601e-01 -5.013783051548870e-03
2.717884185684383e-02 1.376598795676314e-01 -5.237933224726987e-03
2.233336320150781e-02 1.300706964036534e-01 -5.443807267813128e-03
3.432427135223431e-01 3.504162936087516e-01 3.649211083939008e-02
2.850399328454378e-01 3.262592599766024e-01 2.598913463898356e-02
2.340530634664976e-01 3.024312635152575e-01 1.747626624592868e-02
1.897140218667460e-01 2.789226183076882e-01 1.073134842029688e-02
1.514547245274072e-01 2.557236384368652e-01 5.532223922177337e-03
1.187070879297055e-01 2.328246379857599e-01 1.656735511655683e-03
1.187070879297065e-01 2.328246379857605e-01 1.656735511655683e-03
1.020911730079427e-01 2.197395659599682e-01 -6.463658515443171e-05
8.701313680581146e-02 2.067493530509083e-01 -1.461736525403268e-03
7.336372371666855e-02 1.938521364325954e-01 -2.577290287238299e-03
6.103367813386928e-02 1.810460532790433e-01 -3.454023848831866e-03
4.991374445076968e-02 1.683292407642664e-01 -4.134663188345655e-03
-8.138394719045094e-03 1.342645339049930e-02 -1.508846041637923e-04
-6.471971355725165e-03 8.699621756576237e-03 3.760162681842871e-04
-4.680697430521935e-03 4.988807268539230e-03 7.028307866114858e-04
-2.908795715074186e-03 2.298763258413827e-03 7.812833292923926e-04
-1.300488981020621e-03 6.342430582255698e-04 5.630982743696222e-04
0.000000000000000e+00 0.000000000000000e+00 0.000000000000000e+00
-3.454123765458172e-03 7.684358226355170e-02 -5.474278072249206e-03
-5.613628168781304e-03 6.984374204028920e-02 -5.179582793164883e-03
-7.363797932692151e-03 6.317214690610629e-02 -4.828898151878036e-03
-8.732596166953654e-03 5.682971847652585e-02 -4.431584227223340e-03
-9.747985981328422e-03 5.081737836707201e-02 -3.997001098046127e-03
-1.043793048557934e-02 4.513604819326744e-02 -3.534508843173967e-03
1.680703679435369e-02 1.208543314139009e-01 -5.684291251082385e-03
1.149097807364985e-02 1.112773765329333e-01 -5.871743000849250e-03
6.843342126751417e-03 1.020866208887220e-01 -5.932246759982718e-03
2.827619484223387e-03 9.328326776995965e-02 -5.878023326346238e-03
-5.926993233682509e-04 8.486852046533844e-02 -5.721293497813917e-03
-3.454123765458506e-03 7.684358226355059e-02 -5.474278072249206e-03
-1.043793048557934e-02 4.513604819326744e-02 -3.534508843173967e-03
-1.092169790661074e-02 3.732210265057423e-02 -2.817261765198253e-03
-1.084242728611512e-02 3.024116458051107e-02 -2.089748215858833e-03
-1.029131937845035e-02 2.389623980151756e-02 -1.382495781605542e-03
-9.359574937974346e-03 1.829033413203374e-02 -7.260320488882144e-04
-8.138394719045178e-03 1.342645339049942e-02 -1.508846041637923e-04
-5.261676566513240e-02 1.253797069511389e-01 1.934782672634228e-02
-5.813628161259277e-02 1.398669294493618e-01 2.150345892068373e-02
-6.386916038869306e-02 1.549317902405258e-01 2.368151241428507e-02
-6.980715822991146e-02 1.705401512720816e-01 2.586719414939509e-02
-7.594203137272593e-02 1.866578744914807e-01 2.804571106822706e-02
-8.226553605361364e-02 2.032508218461733e-01 3.020227011303334e-02
-2.292297847896191e-02 4.868380027142793e-02 7.076972565062789e-03
-2.803415525890773e-02 6.159569737190751e-02 9.224110391389928e-03
-3.357634288072697e-02 7.579254804682911e-02 1.155566614650994e-02
-3.953232083119074e-02 9.120304083948200e-02 1.404073840459930e-02
-4.588486859706897e-02 1.077558642931553e-01 1.664842573982384e-02
-5.261676566513229e-02 1.253797069511383e-01 1.934782672634583e-02
0.000000000000000e+00 0.000000000000000e+00 0.000000000000000e+00
-2.175132525972040e-03 2.047190287541911e-03 -2.121593897506102e-04
-5.614621019183891e-03 8.186074566373824e-03 4.964514074252691e-04
-1.025884109730574e-02 1.816974372857749e-02 2.018839155994101e-03
-1.604816837800827e-02 3.175128866623478e-02 4.248010620390374e-03
-2.292297847896174e-02 4.868380027142727e-02 7.076972565062789e-03
-1.311691986615817e-01 3.299674808873219e-01 4.345089928624546e-02
-1.354301644130333e-01 3.408183070762205e-01 4.429016505848793e-02
-1.397290896550387e-01 3.517278749701420e-01 4.508154504739537e-02
-1.440644693034013e-01 3.626899519008095e-01 4.582233844800498e-02
-1.484347982739247e-01 3.736983051999451e-01 4.650984445534334e-02
-1.528385714824123e-01 3.847467021992717e-01 4.714136226444410e-02
-8.226553605361364e-02 2.032508218461732e-01 3.020227011302623e-02
-9.142854150219037e-02 2.272375684201401e-01 3.315916830027277e-02
-1.009230961728367e-01 2.519965507627727e-01 3.600318873961683e-02
-1.107265143799910e-01 2.774338257225370e-01 3.869362300265422e-02
-1.208161104380934e-01 3.034554501478993e-01 4.118976266099494e-02
-1.311691986615835e-01 3.299674808873258e-01 4.345089928624546e-02
-1.919635741483681e-01 4.829447342297773e-01 5.019096852826976e-02
-2.061639366972303e-01 5.185802704523039e-01 5.029988521495810e-02
-2.208025768184991e-01 5.552425161249392e-01 4.993541814708280e-02
-2.358863745765150e-01 5.929057574100447e-01 4.909843844387751e-02
-2.514222100356205e-01 6.315442804699818e-01 4.778981722459008e-02
-2.674169632601573e-01 6.711323714671120e-01 4.601042560845059e-02
-2.674169632601562e-01 6.711323714671107e-01 4.601042560844704e-02
-2.915658469349132e-01 7.304806327534615e-01 4.257558387580573e-02
-3.167255672884388e-01 7.917118962486758e-01 3.814519276743056e-02
-3.429174273877917e-01 8.547465429869503e-01 3.272194957083130e-02
-3.701627303000306e-01 9.195049540024818e-01 2.630855157350354e-02
-3.984827790922145e-01 9.859075103294672e-01 1.890769606296061e-02
-3.984827790922116e-01 9.859075103294619e-01 1.890769606296061e-02
-3.987693392487017e-01 9.865745884215573e-01 1.882929567932123e-02
-3.990560074124367e-01 9.872418205781658e-01 1.875079827644299e-02
-3.993427836042502e-01 9.879092067214250e-01 1.867220385696555e-02
-3.996296678449758e-01 9.885767467734732e-01 1.859351242352503e-02
-3.999166601554458e-01 9.892444406564480e-01 1.851472397876464e-02
-1.528385714824123e-01 3.847467021992717e-01 4.714136226444410e-02
-1.553621983008071e-01 3.910669623650731e-01 4.747506201188045e-02
-1.579018878128442e-01 3.974309265363716e-01 4.779020661985101e-02
-1.604576928644659e-01 4.038383972045519e-01 4.808680277942301e-02
-1.630296663016140e-01 4.102891768609980e-01 4.836485718169570e-02
-1.656178609702319e-01 4.167830679970950e-01 4.862437651775409e-02
-1.656178609702312e-01 4.167830679970937e-01 4.862437651775409e-02
-1.707593171972324e-01 4.296889704486067e-01 4.908102980582640e-02
-1.759642137583142e-01 4.427595940015366e-01 4.946596464150943e-02
-1.812329535237094e-01 4.559934329519785e-01 4.977923203420076e-02
-1.865659393636503e-01 4.693889815960278e-01 5.002088299331930e-02
-1.919635741483692e-01 4.829447342297794e-01 5.019096852826621e-02
        </DataArray>
        <DataArray type="Float64" Name="lambda" NumberOfComponents="3" format="ascii">
1.161072375481106e-02 -1.342469859858587e-02 -4.523296085705042e-03
9.358577088479779e-03 -1.089164393963863e-02 -3.423317753646910e-03
7.318772670196978e-03 -8.592866178210040e-03 -2.448526523388064e-03
5.491310499962668e-03 -6.528365314300104e-03 -1.598922394928501e-03
3.876190577776844e-03 -4.698141347908818e-03 -8.745053682682219e-04
2.473412903639509e-03 -3.102194279036182e-03 -2.752754434072268e-04
-2.525897334063429e-04 3.645691028059929e-04 -8.351810499710303e-04
-3.120914557009315e-05 1.344783692151071e-04 -1.032515627935509e-03
2.084437897633159e-04 -1.157722191449513e-04 -1.240622731138190e-03
4.663690725938844e-04 -3.861826622741826e-04 -1.459502359579072e-03
7.425667029216128e-04 -6.767529601725871e-04 -1.689154513258156e-03
1.037036680746500e-03 -9.874831128401642e-04 -1.929579192175441e-03
-1.480323426011621e-03 1.544259301032310e-03 7.139103810739678e-04
-1.457766531285190e-03 1.554345636010999e-03 5.355565233142173e-04
-1.323714714661440e-03 1.441419783677705e-03 2.914704513298362e-04
-1.078167976140371e-03 1.205481744032427e-03 -1.834783487917598e-05
-7.211263157219816e-04 8.465315170751654e-04 -3.938983353128191e-04
-2.525897334062735e-04 3.645691028059208e-04 -8.351810499710930e-04
2.473412903639509e-03 -3.102194279036182e-03 -2.752754434072269e-04
1.662733914714691e-03 -2.175870060222107e-03 5.209686626601808e-05
9.448342509658341e-04 -1.351909137717933e-03 3.247708060556609e-04
3.197139123929356e-04 -6.303115115236589e-04 5.427463759617022e-04
-2.126271010040027e-04 -1.107718163928685e-05 7.060235759841415e-04
-6.521887892249822e-04 5.057938519351853e-04 8.146024061229794e-04
-6.521887892249724e-04 5.057938519351738e-04 8.146024061229774e-04
-9.313692957899269e-04 8.387704427224624e-04 8.614099038272327e-04
-1.153773012751069e-03 1.109105283025820e-03 8.747444501744600e-04
-1.319399940108398e-03 1.316798372845247e-03 8.546060451646593e-04
-1.428250077861916e-03 1.461849712180742e-03 8.009946887978308e-04
-1.480323426011620e-03 1.544259301032307e-03 7.139103810739740e-04
1.037036680746500e-03 -9.874831128401642e-04 -1.929579192175441e-03
1.274482869831039e-03 -1.251891526447488e-03 -1.651950112513734e-03
1.504456613460233e-03 -1.502521393707845e-03 -1.381802882073571e-03
1.726957911634081e-03 -1.739372714621233e-03 -1.119137500854952e-03
1.941986764352584e-03 -1.962445489187655e-03 -8.639539688578754e-04
2.149543171615743e-03 -2.171739717407108e-03 -6.162522860823417e-04
2.149543171615735e-03 -2.171739717407101e-03 -6.162522860823512e-04
2.536213167418741e-03 -2.543411067315565e-03 -1.505991095270014e-04
2.893938726138407e-03 -2.861711366177492e-03 2.860732045578039e-04
3.222719847774731e-03 -3.126640613992883e-03 6.937646561720638e-04
3.522556532327717e-03 -3.338198810761738e-03 1.072475245315781e-03
3.793448779797361e-03 -3.496385956484056e-03 1.422204971988954e-03
-2.583373814748713e-03 1.906214483593741e-02 -2.478777150730064e-03
-2.607962993581100e-03 1.912020116246201e-02 -2.500472812406423e-03
-2.632592347384839e-03 1.917833156817636e-02 -2.522208699612690e-03
-2.657261876159931e-03 1.923653605308046e-02 -2.543984812348862e-03
-2.681971579906375e-03 1.929481461717431e-02 -2.565801150614942e-03
-2.706721458624171e-03 1.935316726045790e-02 -2.587657714410929e-03
3.793448779797352e-03 -3.496385956484050e-03 1.422204971988940e-03
4.357804874903730e-03 -3.658059794374477e-03 2.189414795216127e-03
4.730213089124907e-03 -3.465798258793947e-03 2.764435179020832e-03
4.910673422460884e-03 -2.919601349742464e-03 3.147266123403058e-03
4.899185874911660e-03 -2.019469067220025e-03 3.337907628362805e-03
4.695750446477236e-03 -7.654014112266321e-04 3.336359693900071e-03
4.695750446477231e-03 -7.654014112266157e-04 3.336359693900069e-03
4.055467735879208e-03 1.696318313914303e-03 2.989900792965200e-03
3.007413954457602e-03 4.909932801201167e-03 2.235157658034752e-03
1.551589102212411e-03 8.875442050633975e-03 1.072130289108724e-03
-3.120068208563626e-04 1.359284606221273e-02 -4.991813138128824e-04
-2.583373814748721e-03 1.906214483593743e-02 -2.478777150730070e-03
3.930097156046268e-03 4.590069241115857e-03 -1.626416660375380e-03
4.421288366162242e-03 4.909174520318183e-03 -1.477053336052289e-03
4.927891042185052e-03 5.233593119499492e-03 -1.324835162010562e-03
5.449905184114687e-03 5.563325038659781e-03 -1.169762138250203e-03
5.987330791951161e-03 5.898370277799055e-03 -1.011834264771209e-03
6.540167865694459e-03 6.238728836917309e-03 -8.510515415735809e-04
-2.742128965805857e-03 -7.795616096138956e-04 -4.058751432766428e-03
-1.925548245775599e-03 1.158234772924279e-04 -3.668214699556188e-03
-8.500352735752595e-04 1.100479105818564e-03 -3.229712855711964e-03
4.844099507951637e-04 2.174405275964513e-03 -2.743245901233756e-03
2.077787427335667e-03 3.337601987730274e-03 -2.208813836121563e-03
3.930097156046254e-03 4.590069241115847e-03 -1.626416660375384e-03
4.679912917781177e-02 2.553477676153159e-03 -2.399956418491975e-04
3.332776177279777e-02 -3.477749975164465e-04 -2.055989918271458e-03
2.194444556785323e-02 -2.529142604733756e-03 -3.485189556399797e-03
1.264918056297818e-02 -3.990625145498771e-03 -4.527594556234213e-03
5.441966758172607e-03 -4.732222619811490e-03 -5.183204917774705e-03
3.228041534365164e-04 -4.753935027671912e-03 -5.452020641021277e-03
3.228041534366240e-04 -4.753935027671922e-03 -5.452020641021275e-03
-1.681604370631549e-03 -4.438772645688493e-03 -5.431116480312898e-03
-2.990301944589878e-03 -3.883754112890970e-03 -5.281337479133222e-03
-3.603288568438365e-03 -3.088879429279354e-03 -5.002683637482248e-03
-3.520564242177012e-03 -2.054148594853645e-03 -4.595154955359976e-03
-2.742128965805815e-03 -7.795616096138444e-04 -4.058751432766405e-03
1.562640914392796e-04 6.943390786200220e-04 1.005437896839097e-03
9.936502427098275e-04 1.765060438856935e-03 1.436818464477916e-03
2.087329299395388e-03 3.118899527873346e-03 1.912607263107413e-03