<?xml version="1.0" ?> 
<!-- 
# vtk DataFile Version 3.0
-->
<VTKFile type="UnstructuredGrid" version="0.1" compressor="vtkZLibDataCompressor" byte_order="LittleEndian">
  <UnstructuredGrid>
    <FieldData>
      <DataArray type="Float64" Name="TIME" NumberOfTuples="1" format="ascii">
3.000000000000000e+00 
      </DataArray>
      <DataArray type="Float64" Name="sum_coupling_force_beam" NumberOfTuples="1" NumberOfComponents="3" format="ascii">
1.042099437828385e-01 5.496450028635459e-02 4.059808747713251e-03 
      </DataArray>
      <DataArray type="Float64" Name="sum_coupling_force_solid" NumberOfTuples="1" NumberOfComponents="3" format="ascii">
-1.042099437828386e-01 -5.496450028635461e-02 -4.059808747713252e-03 
      </DataArray>
      <DataArray type="Float64" Name="sum_coupling_moment_beam" NumberOfTuples="1" NumberOfComponents="3" format="ascii">
-5.448105137068270e-02 1.320920786670829e-01 1.277092911898156e-03 
      </DataArray>
      <DataArray type="Float64" Name="sum_coupling_moment_solid" NumberOfTuples="1" NumberOfComponents="3" format="ascii">
5.706547624605577e-01 -1.154303444625614e+00 4.791932029385644e-02 
      </DataArray>
    </FieldData>

    <Piece NumberOfPoints="326" NumberOfCells="0" >
      <Points>
        <DataArray type="Float64" NumberOfComponents="3" format="ascii">
7.000000000000000e-01 0.000000000000000e+00 1.000000000000000e+01
6.062177826489999e-01 3.500000000000000e-01 1.000000000000000e+01
6.062177826489999e-01 3.500000000000000e-01 1.050000000000000e+01
7.000000000000000e-01 0.000000000000000e+00 1.050000000000000e+01
1.000000000000000e+00 0.000000000000000e+00 1.000000000000000e+01
8.660254037839999e-01 5.000000000000000e-01 1.000000000000000e+01
8.660254037839999e-01 5.000000000000000e-01 1.050000000000000e+01
1.000000000000000e+00 0.000000000000000e+00 1.050000000000000e+01
6.761480784020000e-01 1.811733315720000e-01 1.000000000000000e+01
6.062177826489999e-01 3.500000000000000e-01 1.025000000000000e+01
6.761480784020000e-01 1.811733315720000e-01 1.050000000000000e+01
7.000000000000000e-01 0.000000000000000e+00 1.025000000000000e+01
8.500000000000000e-01 0.000000000000000e+00 1.000000000000000e+01
7.361215932170000e-01 4.250000000000000e-01 1.000000000000000e+01
7.361215932170000e-01 4.250000000000000e-01 1.050000000000000e+01
8.500000000000000e-01 0.000000000000000e+00 1.050000000000000e+01
9.659258262890000e-01 2.588190451030000e-01 1.000000000000000e+01
8.660254037839999e-01 5.000000000000000e-01 1.025000000000000e+01
9.659258262890000e-01 2.588190451030000e-01 1.050000000000000e+01
1.000000000000000e+00 0.000000000000000e+00 1.025000000000000e+01
8.210369523460000e-01 2.199961883370000e-01 1.025000000000000e+01
6.761480784020000e-01 1.811733315720000e-01 1.025000000000000e+01
9.659258262890000e-01 2.588190451030000e-01 1.025000000000000e+01
8.500000000000000e-01 0.000000000000000e+00 1.025000000000000e+01
7.361215932170000e-01 4.250000000000000e-01 1.025000000000000e+01
8.210369523460000e-01 2.199961883370000e-01 1.000000000000000e+01
8.210369523460000e-01 2.199961883370000e-01 1.050000000000000e+01
3.500000000000000e-01 6.062177826489999e-01 1.000000000000000e+01
3.500000000000000e-01 6.062177826489999e-01 1.050000000000000e+01
5.000000000000000e-01 8.660254037839999e-01 1.000000000000000e+01
5.000000000000000e-01 8.660254037839999e-01 1.050000000000000e+01
4.949747468310000e-01 4.949747468310000e-01 1.000000000000000e+01
3.500000000000000e-01 6.062177826489999e-01 1.025000000000000e+01
4.949747468310000e-01 4.949747468310000e-01 1.050000000000000e+01
4.250000000000000e-01 7.361215932170000e-01 1.000000000000000e+01
4.250000000000000e-01 7.361215932170000e-01 1.050000000000000e+01
7.071067811870000e-01 7.071067811870000e-01 1.000000000000000e+01
5.000000000000000e-01 8.660254037839999e-01 1.025000000000000e+01
7.071067811870000e-01 7.071067811870000e-01 1.050000000000000e+01
6.010407640090000e-01 6.010407640090000e-01 1.025000000000000e+01
4.949747468310000e-01 4.949747468310000e-01 1.025000000000000e+01
7.071067811870000e-01 7.071067811870000e-01 1.025000000000000e+01
4.250000000000000e-01 7.361215932170000e-01 1.025000000000000e+01
6.010407640090000e-01 6.010407640090000e-01 1.000000000000000e+01
6.010407640090000e-01 6.010407640090000e-01 1.050000000000000e+01
0.000000000000000e+00 7.000000000000000e-01 1.000000000000000e+01
0.000000000000000e+00 7.000000000000000e-01 1.050000000000000e+01
0.000000000000000e+00 1.000000000000000e+00 1.000000000000000e+01
0.000000000000000e+00 1.000000000000000e+00 1.050000000000000e+01
1.811733315720000e-01 6.761480784020000e-01 1.000000000000000e+01
0.000000000000000e+00 7.000000000000000e-01 1.025000000000000e+01
1.811733315720000e-01 6.761480784020000e-01 1.050000000000000e+01
0.000000000000000e+00 8.500000000000000e-01 1.000000000000000e+01
0.000000000000000e+00 8.500000000000000e-01 1.050000000000000e+01
2.588190451030000e-01 9.659258262890000e-01 1.000000000000000e+01
0.000000000000000e+00 1.000000000000000e+00 1.025000000000000e+01
2.588190451030000e-01 9.659258262890000e-01 1.050000000000000e+01
2.199961883370000e-01 8.210369523460000e-01 1.025000000000000e+01
1.811733315720000e-01 6.761480784020000e-01 1.025000000000000e+01
2.588190451030000e-01 9.659258262890000e-01 1.025000000000000e+01
0.000000000000000e+00 8.500000000000000e-01 1.025000000000000e+01
2.199961883370000e-01 8.210369523460000e-01 1.000000000000000e+01
2.199961883370000e-01 8.210369523460000e-01 1.050000000000000e+01
6.062177826489999e-01 3.500000000000000e-01 1.100000000000000e+01
7.000000000000000e-01 0.000000000000000e+00 1.100000000000000e+01
8.660254037839999e-01 5.000000000000000e-01 1.100000000000000e+01
1.000000000000000e+00 0.000000000000000e+00 1.100000000000000e+01
6.062177826489999e-01 3.500000000000000e-01 1.075000000000000e+01
6.761480784020000e-01 1.811733315720000e-01 1.100000000000000e+01
7.000000000000000e-01 0.000000000000000e+00 1.075000000000000e+01
7.361215932170000e-01 4.250000000000000e-01 1.100000000000000e+01
8.500000000000000e-01 0.000000000000000e+00 1.100000000000000e+01
8.660254037839999e-01 5.000000000000000e-01 1.075000000000000e+01
9.659258262890000e-01 2.588190451030000e-01 1.100000000000000e+01
1.000000000000000e+00 0.000000000000000e+00 1.075000000000000e+01
8.210369523460000e-01 2.199961883370000e-01 1.075000000000000e+01
6.761480784020000e-01 1.811733315720000e-01 1.075000000000000e+01
9.659258262890000e-01 2.588190451030000e-01 1.075000000000000e+01
8.500000000000000e-01 0.000000000000000e+00 1.075000000000000e+01
7.361215932170000e-01 4.250000000000000e-01 1.075000000000000e+01
8.210369523460000e-01 2.199961883370000e-01 1.100000000000000e+01
3.500000000000000e-01 6.062177826489999e-01 1.100000000000000e+01
5.000000000000000e-01 8.660254037839999e-01 1.100000000000000e+01
3.500000000000000e-01 6.062177826489999e-01 1.075000000000000e+01
4.949747468310000e-01 4.949747468310000e-01 1.100000000000000e+01
4.250000000000000e-01 7.361215932170000e-01 1.100000000000000e+01
5.000000000000000e-01 8.660254037839999e-01 1.075000000000000e+01
7.071067811870000e-01 7.071067811870000e-01 1.100000000000000e+01
6.010407640090000e-01 6.010407640090000e-01 1.075000000000000e+01
4.949747468310000e-01 4.949747468310000e-01 1.075000000000000e+01
7.071067811870000e-01 7.071067811870000e-01 1.075000000000000e+01
4.250000000000000e-01 7.361215932170000e-01 1.075000000000000e+01
6.010407640090000e-01 6.010407640090000e-01 1.100000000000000e+01
0.000000000000000e+00 7.000000000000000e-01 1.100000000000000e+01
0.000000000000000e+00 1.000000000000000e+00 1.100000000000000e+01
0.000000000000000e+00 7.000000000000000e-01 1.075000000000000e+01
1.811733315720000e-01 6.761480784020000e-01 1.100000000000000e+01
0.000000000000000e+00 8.500000000000000e-01 1.100000000000000e+01
0.000000000000000e+00 1.000000000000000e+00 1.075000000000000e+01
2.588190451030000e-01 9.659258262890000e-01 1.100000000000000e+01
2.199961883370000e-01 8.210369523460000e-01 1.075000000000000e+01
1.811733315720000e-01 6.761480784020000e-01 1.075000000000000e+01
2.588190451030000e-01 9.659258262890000e-01 1.075000000000000e+01
0.000000000000000e+00 8.500000000000000e-01 1.075000000000000e+01
2.199961883370000e-01 8.210369523460000e-01 1.100000000000000e+01
6.062177826489999e-01 3.500000000000000e-01 1.150000000000000e+01
7.000000000000000e-01 0.000000000000000e+00 1.150000000000000e+01
8.660254037839999e-01 5.000000000000000e-01 1.150000000000000e+01
1.000000000000000e+00 0.000000000000000e+00 1.150000000000000e+01
6.062177826489999e-01 3.500000000000000e-01 1.125000000000000e+01
6.761480784020000e-01 1.811733315720000e-01 1.150000000000000e+01
7.000000000000000e-01 0.000000000000000e+00 1.125000000000000e+01
7.361215932170000e-01 4.250000000000000e-01 1.150000000000000e+01
8.500000000000000e-01 0.000000000000000e+00 1.150000000000000e+01
8.660254037839999e-01 5.000000000000000e-01 1.125000000000000e+01
9.659258262890000e-01 2.588190451030000e-01 1.150000000000000e+01
1.000000000000000e+00 0.000000000000000e+00 1.125000000000000e+01
8.210369523460000e-01 2.199961883370000e-01 1.125000000000000e+01
6.761480784020000e-01 1.811733315720000e-01 1.125000000000000e+01
9.659258262890000e-01 2.588190451030000e-01 1.125000000000000e+01
8.500000000000000e-01 0.000000000000000e+00 1.125000000000000e+01
7.361215932170000e-01 4.250000000000000e-01 1.125000000000000e+01
8.210369523460000e-01 2.199961883370000e-01 1.150000000000000e+01
3.500000000000000e-01 6.062177826489999e-01 1.150000000000000e+01
5.000000000000000e-01 8.660254037839999e-01 1.150000000000000e+01
3.500000000000000e-01 6.062177826489999e-01 1.125000000000000e+01
4.949747468310000e-01 4.949747468310000e-01 1.150000000000000e+01
4.250000000000000e-01 7.361215932170000e-01 1.150000000000000e+01
5.000000000000000e-01 8.660254037839999e-01 1.125000000000000e+01
7.071067811870000e-01 7.071067811870000e-01 1.150000000000000e+01
6.010407640090000e-01 6.010407640090000e-01 1.125000000000000e+01
[...]
  <PointData>
        <DataArray type="Float64" Name="displacement" NumberOfComponents="3" format="ascii">
3.868213887464765e-01 2.408493974145272e-01 -4.121336672222915e-02
2.029851231001407e-01 1.509372576873406e-01 -1.942433896720566e-02
1.466839089475004e-01 1.185382434359877e-01 -3.050686775212990e-02
2.763837443625969e-01 1.787671498127872e-01 -5.014070456521479e-02
3.762624156880118e-01 3.581842502926375e-01 3.497031427680983e-02
1.014401933274400e-01 2.440031265051892e-01 1.100158956526323e-02
7.389923125314021e-02 1.955121217535035e-01 -6.999314948060460e-03
2.526496317663957e-01 2.850251396679282e-01 6.351828230860765e-03
2.963068769083368e-01 2.074804402998586e-01 -3.066292888298943e-02
1.790314627535312e-01 1.320567169914391e-01 -2.750799395145413e-02
2.095259787059421e-01 1.562778762332623e-01 -4.036562734211856e-02
3.308381405371204e-01 2.067596111354060e-01 -4.632568348850175e-02
3.721605202031653e-01 3.042338658058044e-01 -4.440473820059024e-03
1.554856654087900e-01 1.953737707230042e-01 -4.771890962191989e-03
1.101898783935510e-01 1.567584407952861e-01 -1.482647576963627e-02
2.633184126627711e-01 2.317799633229121e-01 -2.164714659560957e-02
2.418144305358826e-01 3.171759079818801e-01 2.640994493303159e-02
9.063688072826727e-02 2.197157416979998e-01 1.184888086036310e-03
1.556065429345491e-01 2.544179401281852e-01 9.726289941074507e-03
2.989212374134375e-01 3.229552400954785e-01 2.035007296302812e-02
2.241920648138089e-01 2.327258299823924e-01 -1.140095607721627e-02
2.555371096429864e-01 1.775828740375829e-01 -3.824897055646249e-02
1.985023203136657e-01 2.839574799213090e-01 1.227591559590432e-02
3.155450413824067e-01 2.651400255722671e-01 -1.590873984180260e-02
1.348813303194867e-01 1.752039326715721e-01 -1.206935835823657e-02
2.653002303833956e-01 2.639311513793888e-01 -1.908735827401537e-03
1.831870733636695e-01 2.041923597535005e-01 -1.591891031105247e-02
6.303724973328470e-02 3.606513530529620e-02 -2.989464175613979e-04
5.245959711084353e-02 3.743033351593776e-02 -1.207668707474525e-02
-1.068165426211087e-02 6.369394386413572e-02 -8.564584392528557e-03
-9.927907211261073e-03 6.307194246623941e-02 -6.003289002778975e-03
1.227079136221917e-01 8.879658657808802e-02 -8.612585873511098e-03
6.089733800660081e-02 3.835330185610229e-02 -8.716052018117287e-03
9.367308395185937e-02 7.731832810155602e-02 -2.029915116953069e-02
2.576456557384028e-02 4.778528957033482e-02 -5.297342918075977e-03
2.110721022015800e-02 4.840291597725312e-02 -8.779551633266190e-03
2.469082943349209e-02 1.474866093945053e-01 -3.541063743643947e-03
-9.207640143464804e-03 6.521871772453700e-02 -7.169938399136204e-03
1.803682988785630e-02 1.289523568819380e-01 -6.396877007209389e-03
6.580529649022604e-02 1.094542613293334e-01 -1.051540977110408e-02
1.122094550578095e-01 8.276603024690621e-02 -1.725494240824940e-02
2.155184574819854e-02 1.400934299381081e-01 -3.851318752072558e-03
2.540831929029139e-02 4.960989474536572e-02 -7.466259020199866e-03
7.237603088766834e-02 1.162062912005331e-01 -5.912152377621307e-03
5.517358010513849e-02 1.015655779946040e-01 -1.238501549481956e-02
0.000000000000000e+00 0.000000000000000e+00 0.000000000000000e+00
0.000000000000000e+00 0.000000000000000e+00 0.000000000000000e+00
0.000000000000000e+00 0.000000000000000e+00 0.000000000000000e+00
0.000000000000000e+00 0.000000000000000e+00 0.000000000000000e+00
2.467649764018895e-02 7.670802291862596e-03 5.114150394734025e-03
0.000000000000000e+00 0.000000000000000e+00 0.000000000000000e+00
2.246726965065794e-02 1.216144214004363e-02 -5.853596697817595e-03
0.000000000000000e+00 0.000000000000000e+00 0.000000000000000e+00
0.000000000000000e+00 0.000000000000000e+00 0.000000000000000e+00
-1.218642043800945e-02 1.202401872297620e-02 -6.562775677989459e-03
0.000000000000000e+00 0.000000000000000e+00 0.000000000000000e+00
-1.122988160857751e-02 1.641842969668490e-02 -4.663083067770057e-03
6.650579428387073e-03 1.102611764972389e-02 -3.828563876308579e-03
2.502491108480254e-02 1.200726434301762e-02 -3.011189154073491e-03
-1.055134893746353e-02 1.584550499433183e-02 -4.908326812910770e-03
0.000000000000000e+00 0.000000000000000e+00 0.000000000000000e+00
5.665925645673534e-03 7.185013399677841e-03 -1.342479892899649e-03
5.127127132441917e-03 1.139470044395328e-02 -5.066514217219793e-03
1.026811546428945e-01 9.118818075881004e-02 -2.848026283947130e-02
1.987119713912086e-01 1.301220175976477e-01 -5.033554735474661e-02
5.359808150462495e-02 1.526540490798625e-01 -7.438919310434396e-04
1.861264158022531e-01 2.117775932064150e-01 -1.600448725228707e-02
1.219114576630286e-01 1.061866822299673e-01 -2.882263084723305e-02
1.483347052862532e-01 1.157173655430261e-01 -3.815553058222457e-02
2.314000754144109e-01 1.537601685651325e-01 -5.043061559987460e-02
7.786522483906953e-02 1.214259647597231e-01 -1.450832315317213e-02
1.921058096865811e-01 1.706493170889575e-01 -3.347217168036488e-02
6.315622149185372e-02 1.763603266541901e-01 -1.016483192481994e-03
1.142129811704347e-01 1.910980978083132e-01 -2.914366701493095e-03
2.144238829504778e-01 2.466581864478996e-01 -6.496441134735324e-03
1.528519514677701e-01 1.783603061971455e-01 -1.818606311689968e-02
1.744545189521200e-01 1.359633578528021e-01 -3.932590870626822e-02
1.322536033060775e-01 2.218581499809525e-01 2.970127076164760e-03
2.227735124986976e-01 1.998348728429104e-01 -2.884016579204811e-02
9.237925440506617e-02 1.408502512804886e-01 -1.456463427810391e-02
1.310054189144445e-01 1.530571167722454e-01 -2.066218925942190e-02
3.714624165972073e-02 3.143490220087828e-02 -1.378403874597717e-02
-1.005397380205024e-02 5.314167083375233e-02 -4.350863242590374e-03
4.509251898679352e-02 3.592307819447189e-02 -1.296607677216562e-02
6.570879781927846e-02 6.187068387021640e-02 -2.093018748651111e-02
1.335791493946696e-02 4.124783341014397e-02 -8.642439721304291e-03
-9.585054659091045e-03 5.985533722564746e-02 -5.287654002902368e-03
1.141485194092909e-02 1.030513490427169e-01 -1.647380740149021e-03
4.709242385596223e-02 9.457235527008537e-02 -1.221362667536761e-02
7.910935369670888e-02 7.165230988065710e-02 -2.058160971530753e-02
1.734463837086544e-02 1.199550981287223e-01 -5.238486560902408e-03
1.765818299252427e-02 4.651090405101383e-02 -9.052532258986808e-03
3.829547494197088e-02 8.186957531731030e-02 -1.170387495146546e-02
0.000000000000000e+00 0.000000000000000e+00 0.000000000000000e+00
0.000000000000000e+00 0.000000000000000e+00 0.000000000000000e+00
0.000000000000000e+00 0.000000000000000e+00 0.000000000000000e+00
1.623674655227632e-02 1.091953750410753e-02 -6.929491259553754e-03
0.000000000000000e+00 0.000000000000000e+00 0.000000000000000e+00
0.000000000000000e+00 0.000000000000000e+00 0.000000000000000e+00
-1.115275871006917e-02 1.520401846554255e-02 -3.186534565568124e-03
3.735674274202702e-03 1.176366445675961e-02 -5.258507426110253e-03
1.949813780573730e-02 1.204264335727263e-02 -6.539404565353123e-03
-1.129799976090594e-02 1.651506065449892e-02 -4.329887408507257e-03
0.000000000000000e+00 0.000000000000000e+00 0.000000000000000e+00
2.433452897490688e-03 1.107798181594134e-02 -4.741726715748298e-03
7.342753979980775e-02 5.375059943255085e-02 -3.065644191181447e-02
1.552458341319884e-01 8.405006796964697e-02 -5.157595629746158e-02
3.396054363559262e-02 1.068455240932501e-01 -1.379018880896477e-03
1.455492638194260e-01 1.563440167838583e-01 -2.410072924687191e-02
8.704332867921859e-02 7.372062711436375e-02 -2.899649997187690e-02
1.116138471941020e-01 7.289906438172243e-02 -3.961832422613081e-02
1.742999651336538e-01 1.071497902920733e-01 -5.062682278379067e-02
5.342741706753676e-02 8.003869572704389e-02 -1.581641206208196e-02
1.504220610702835e-01 1.199510240150279e-01 -3.793952936987127e-02
4.491003001784682e-02 1.291552841844028e-01 -1.319788254878276e-03
8.368453209977211e-02 1.385288795604068e-01 -8.804999413686910e-03
1.640101076442232e-01 1.818313124633201e-01 -2.145421867368050e-02
1.135013926813345e-01 1.289088061464835e-01 -2.256723503558037e-02
1.285277556430935e-01 9.495325977232574e-02 -3.836475907190143e-02
9.905938268267110e-02 1.632334460027597e-01 -6.686651313076690e-03
1.691111604354261e-01 1.442281936406348e-01 -3.619846881110764e-02
6.571872375661982e-02 1.009782104488342e-01 -1.509434982791562e-02
9.746690183675912e-02 1.056149612982834e-01 -2.422593237861581e-02
2.398572103983888e-02 1.181375768559075e-02 -1.748663184239983e-02
-9.935250488182779e-03 2.896223693438612e-02 8.212504293055984e-04
2.913553499349393e-02 2.439573878427332e-02 -1.502758409808980e-02
4.446594584412914e-02 3.198939107247802e-02 -2.409987786340397e-02
6.779936637013249e-03 1.979017615518050e-02 -7.598065965581747e-03
-9.365836141890382e-03 4.266072796506309e-02 -1.810222617634195e-03
2.426426791152908e-03 6.714465671075433e-02 4.797948021315658e-04
3.054434245492604e-02 6.639884904516863e-02 -1.119930295925054e-02
5.388424151567526e-02 4.896627220921185e-02 -2.195622308059546e-02
8.025666706684564e-03 8.540885733820945e-02 -5.954188302404711e-04
9.681599099980769e-03 3.272397372270124e-02 -8.166551395510417e-03
2.314259591074644e-02 4.892196842805119e-02 -1.159421702030716e-02
0.000000000000000e+00 0.000000000000000e+00 0.000000000000000e+00
0.000000000000000e+00 0.000000000000000e+00 0.000000000000000e+00
0.000000000000000e+00 0.000000000000000e+00 0.000000000000000e+00
1.100523711993277e-02 2.171307122681439e-03 -1.052323811270659e-02
0.000000000000000e+00 0.000000000000000e+00 0.000000000000000e+00
0.000000000000000e+00 0.000000000000000e+00 0.000000000000000e+00
-5.155888670754299e-03 7.278526249332494e-03 2.213410709139126e-03
1.640939521407781e-03 9.492319909893946e-03 -3.971052702386051e-03
1.223360406001156e-02 8.676885958301392e-03 -7.662924336035317e-03
-8.206209130145444e-03 1.338543559626199e-02 -9.735392575369786e-05
0.000000000000000e+00 0.000000000000000e+00 0.000000000000000e+00
2.064947699978150e-03 3.247041985791122e-03 -4.274840310353267e-03
0.000000000000000e+00 0.000000000000000e+00 0.000000000000000e+00
0.000000000000000e+00 0.000000000000000e+00 0.000000000000000e+00
0.000000000000000e+00 0.000000000000000e+00 0.000000000000000e+00
0.000000000000000e+00 0.000000000000000e+00 0.000000000000000e+00
2.619313540766664e-02 1.188979205296908e-01 2.107085648023808e-02
4.120675683894734e-02 1.109436689498063e-01 3.229545889987268e-02
-5.567660108740122e-02 9.207686273457449e-02 1.395716981225564e-02
-8.614513279349834e-02 9.570548149321527e-02 2.247048082459834e-02
0.000000000000000e+00 0.000000000000000e+00 0.000000000000000e+00
0.000000000000000e+00 0.000000000000000e+00 0.000000000000000e+00
0.000000000000000e+00 0.000000000000000e+00 0.000000000000000e+00
0.000000000000000e+00 0.000000000000000e+00 0.000000000000000e+00
1.967078535580256e-02 3.193477293306023e-02 3.403583509343398e-03
2.686191530139483e-02 3.661288471970162e-02 1.274755437733694e-02
-2.739334803105042e-02 2.937413717659068e-02 4.548398697053492e-03
-4.299785695166192e-02 2.672610033680032e-02 1.616650324012659e-02
3.538692726622530e-02 1.197450266895941e-01 2.673473675431511e-02
-6.444337382341422e-03 1.000177596021352e-01 2.358687775030285e-02
-7.239086997817709e-02 9.776746960612498e-02 1.777184567039607e-02
-2.934756600080884e-02 1.058137065123960e-01 2.186398754626994e-02
-4.967314219119400e-03 3.155229952295163e-02 8.669259652032021e-03
0.000000000000000e+00 0.000000000000000e+00 0.000000000000000e+00
-1.779416705613479e-02 1.074888234608138e-01 2.237035964301995e-02
-1.124591403869860e-02 2.615487268207713e-02 1.021383842508033e-02
1.108484928932446e-04 2.955059665386602e-02 8.945461878609035e-03
2.445670239151614e-02 3.822178907565167e-02 8.690398818056616e-03
-3.518752180386910e-02 3.175130850876640e-02 8.268848485257505e-03
0.000000000000000e+00 0.000000000000000e+00 0.000000000000000e+00
0.000000000000000e+00 0.000000000000000e+00 0.000000000000000e+00
6.646393398851091e-02 7.423348402324965e-02 4.870640426764271e-02
-1.390692662304631e-02 5.458401294591919e-02 1.143827805948593e-02
0.000000000000000e+00 0.000000000000000e+00 0.000000000000000e+00
0.000000000000000e+00 0.000000000000000e+00 0.000000000000000e+00
0.000000000000000e+00 0.000000000000000e+00 0.000000000000000e+00
3.735943176867174e-02 1.889352113171147e-02 2.646089769984719e-02
-2.567790772417251e-03 4.787549011636463e-03 5.533612672369329e-04
4.983697236540165e-02 9.494058304212628e-02 3.915511486939213e-02
2.770090416527604e-02 6.284881497735707e-02 3.031748565088944e-02
-3.481761240914250e-02 7.451835056336129e-02 1.133278441043288e-02
6.162458899380458e-03 2.343124624440664e-02 1.024320374157648e-02
0.000000000000000e+00 0.000000000000000e+00 0.000000000000000e+00
7.792643728219999e-03 8.387796681034471e-02 2.618680506856794e-02
1.752930356026153e-02 9.841097419637191e-03 1.419770319945690e-02
2.849129962846856e-02 3.059863923554754e-02 1.715550252767348e-02
-1.560714455163599e-02 2.180506379820480e-02 1.998264906692017e-03
-1.424388102594442e-02 3.863957887116479e-01 6.370698580176146e-02
2.316414265494778e-02 3.467185498523283e-01 7.635033376435878e-02
-1.221475793541165e-01 3.037929230163015e-01 4.164026092154898e-02
-1.752913245253549e-01 3.345500267158120e-01 3.786593790603710e-02
1.299689091518063e-02 2.416168009319323e-01 4.274223757167978e-02
3.971072603056150e-02 2.173736761932785e-01 5.516253319626672e-02
-8.616644686459368e-02 1.853765561346009e-01 2.586380273860209e-02
-1.290204808378813e-01 2.041644789141608e-01 3.088378051364444e-02
5.688476605617389e-03 3.704075343972867e-01 6.972215655013450e-02
-5.049480512652124e-02 3.236998336360086e-01 5.754338341303978e-02
-1.519096815025064e-01 3.210874522539056e-01 3.764245912146265e-02
-9.482719497930633e-02 3.595167909907764e-01 5.029604803829576e-02
-4.048428639826750e-02 2.153595912243487e-01 3.837294072598225e-02
-7.245665956477555e-02 3.450902566434620e-01 5.393747551890236e-02
-5.757822140933392e-02 2.216541794836971e-01 3.682383681931312e-02
-2.291392190696980e-02 2.001799012262192e-01 4.106022802185496e-02
2.760723673881835e-02 2.343580059692864e-01 4.865133238196093e-02
-1.099166924624698e-01 1.987730828050343e-01 2.773169901920882e-02
6.917537891475742e-02 2.880609204130450e-01 9.029116171426399e-02
-7.017977535997998e-02 2.464398866088618e-01 3.949302085999587e-02
7.750455125210501e-02 1.688669025842159e-01 7.077808311826765e-02
-3.780396718846496e-02 1.398047683563708e-01 2.638870530881674e-02
4.255055253903761e-02 3.181003986134964e-01 8.270448188049871e-02
-5.888115701103934e-05 2.664711761998256e-01 6.508963105237792e-02
-9.969840235940362e-02 2.762089057143863e-01 3.945084189694222e-02
-3.196259665809375e-03 1.778255864250460e-01 4.408749978804280e-02
-2.796691754589177e-02 2.963843123715169e-01 6.101137447546091e-02
2.135534159318122e-02 1.526911929466616e-01 4.829226548536553e-02
5.487471411531581e-02 1.944547649581971e-01 6.206671961184562e-02
-6.178968832574395e-02 1.636280221340171e-01 2.566031007171780e-02
-9.835219015163540e-02 7.163742634206103e-01 9.273301937067138e-02
-4.659113659905349e-02 6.385176240909237e-01 1.036308410431977e-01
-2.195303987526391e-01 5.760230313750688e-01 4.867049705168866e-02
-2.835859856893637e-01 6.422764236429973e-01 3.973089693672708e-02
-5.170590232685838e-02 5.453520779933778e-01 8.105304631587126e-02
-6.792572714244862e-03 4.885176405962862e-01 9.282373025550558e-02
-1.668069474866565e-01 4.367323378361706e-01 4.999105480467028e-02
-2.282676554630124e-01 4.818893251040838e-01 4.030579621659885e-02
-6.984228320272927e-02 6.795164914918134e-01 9.962355610149663e-02
-1.320990861596472e-01 6.069421379253047e-01 7.612534931293503e-02
-2.437652279429508e-01 6.117950744663613e-01 4.856540320037435e-02
-1.894533679722469e-01 6.792543240631986e-01 6.727621883642815e-02
-1.118908966333132e-01 4.894020225891431e-01 6.646200035557266e-02
-1.587981191396116e-01 6.442048261700990e-01 7.291529093787287e-02
-1.386112705541122e-01 5.131877219128679e-01 6.174450767907828e-02
-8.736878383215295e-02 4.610967909496615e-01 6.995931510327728e-02
-2.724533667749977e-02 5.199753932225447e-01 8.755674528806154e-02
-1.952219072675987e-01 4.615790122355649e-01 4.698518190552618e-02
8.049513748391001e-03 5.598385863029683e-01 1.145227934684832e-01
-1.571300325984115e-01 5.034513715274326e-01 5.485580220603845e-02
4.377217423296122e-02 4.200051443667110e-01 1.051852530150869e-01
-1.107340396929412e-01 3.707116409527683e-01 4.991618677202563e-02
-2.143341926993138e-02 5.988090607207125e-01 1.084890499311114e-01
-7.415741046229027e-02 5.312695654518605e-01 8.456691096581552e-02
-1.886970896794570e-01 5.404449220943962e-01 5.136806403391647e-02
-6.288944966520439e-02 4.287343524420149e-01 7.315800470043847e-02
-1.048307373182158e-01 5.692577598638101e-01 7.989868528573818e-02
-3.319770537860896e-02 3.945120117084172e-01 7.727794507181679e-02
1.537039075785333e-02 4.545775252743156e-01 9.832729622443306e-02
-1.423101405261993e-01 4.034430512126004e-01 4.779047176054312e-02
-2.151145233282291e-01 1.058473388910604e+00 9.652763169440486e-02
-1.456993537159881e-01 9.452202355824402e-01 1.101251601211360e-01
-3.231887126656737e-01 8.779437617486275e-01 4.045412579660251e-02
-4.033398338567952e-01 9.988992970060439e-01 1.552016243542350e-02
-1.554125176089880e-01 8.906426401833037e-01 9.823322940094677e-02
-9.462262113514090e-02 7.921839778799855e-01 1.097445475385626e-01
-2.717684192028328e-01 7.241111961641976e-01 4.459690531562285e-02
-3.373624418884336e-01 8.190665807872040e-01 3.244444742979186e-02
-1.787267944760398e-01 1.000603348502484e+00 1.036579922494460e-01
-2.343227512544200e-01 9.105550860723346e-01 7.500376560413141e-02
-3.612950585017699e-01 9.265812227773180e-01 3.029202340933052e-02
-3.090549726299162e-01 1.021519871613642e+00 5.696230067600519e-02
-2.138189316441204e-01 8.056652408175814e-01 7.211967422911271e-02
-2.700001889722705e-01 9.641125659650979e-01 6.784253687563488e-02
-2.473822596133050e-01 8.538325471305219e-01 6.441859729070676e-02
-1.824824941020747e-01 7.584138116110617e-01 7.733572333184520e-02
-1.227961635105876e-01 8.422723726392897e-01 1.052694083239294e-01
-3.036172920154908e-01 7.714392865202712e-01 3.991844617386722e-02
-8.099595559868446e-02 8.508584878094076e-01 1.217333852704766e-01
-2.523073790297394e-01 7.886807445656079e-01 5.694103043930803e-02
-3.466484655879423e-02 7.041565321731253e-01 1.195948922747486e-01
-2.044854187946894e-01 6.433163116082108e-01 5.609836526118522e-02
-1.134046892275100e-01 8.951514676914422e-01 1.158024751148095e-01
-1.666889726532725e-01 8.194471727086720e-01 8.926926762714961e-02
-2.866174265975524e-01 8.313449850107077e-01 4.989176227163662e-02
-1.513816899953863e-01 7.152077602422395e-01 8.243474238701472e-02
-1.998278725226343e-01 8.633117559110943e-01 8.288580938097670e-02
-1.193563652220801e-01 6.737212975289666e-01 8.791881211618593e-02
-6.572918139572362e-02 7.467934408407924e-01 1.141689563355457e-01
-2.374265236302658e-01 6.841920180694552e-01 5.076674995573387e-02
0.000000000000000e+00 0.000000000000000e+00 0.000000000000000e+00
0.000000000000000e+00 0.000000000000000e+00 0.000000000000000e+00
-7.095230827281153e-03 5.666656141796502e-02 -9.122933563357354e-03
0.000000000000000e+00 0.000000000000000e+00 0.000000000000000e+00
7.137010691904865e-02 1.377744205096800e-01 4.010331322957366e-03
8.545396221746278e-02 7.348482117543911e-02 -5.355908151910463e-03
1.367541733952772e-01 9.250573093848190e-02 -1.775873426445298e-03
1.245102890703534e-01 9.535596835818305e-02 3.836244016853269e-04
1.357881592307710e-03 2.643084329523688e-02 -3.406491336970472e-03
1.367395515935115e-02 1.069242610968234e-02 -4.972673604916456e-03
-1.354157439582632e-02 2.633325510423446e-02 -8.684607854796939e-03
7.871168081521078e-03 8.171827032333494e-02 -6.213828191101477e-03
3.668698422211317e-02 5.903038148824549e-02 -2.914074347821847e-03
2.842764634276845e-02 1.179644127995356e-01 9.473655921167891e-04
1.715775032283479e-01 9.447968489002906e-02 -1.965785264788364e-03