<?xml version="1.0" ?> 
<!-- 
# vtk DataFile Version 3.0
-->
<VTKFile type="UnstructuredGrid" version="0.1" compressor="vtkZLibDataCompressor" byte_order="LittleEndian">
  <UnstructuredGrid>
    <FieldData>
      <DataArray type="Float64" Name="TIME" NumberOfTuples="1" format="ascii">
1.000000000000000e+00 
      </DataArray>
    </FieldData>

    <Piece NumberOfPoints="144" NumberOfCells="0" >
      <Points>
        <DataArray type="Float64" NumberOfComponents="3" format="ascii">
9.961533271249772e-01 8.592418384678252e-02 1.528337982331191e-02
9.887948166351245e-01 1.468155374270063e-01 7.667799810771483e-02
9.699057734523874e-01 2.404816442810286e-01 1.723323091259243e-01
9.380670753119248e-01 3.436214899201144e-01 2.803645491270422e-01
9.009383449562890e-01 4.317257829641912e-01 3.760283814780543e-01
8.728438351829586e-01 4.862941241986099e-01 4.374338241997575e-01
8.645497179207684e-01 5.009905353633889e-01 4.543169038318230e-01
8.613358063736754e-01 5.065360022142251e-01 4.607295218781859e-01
8.562595335071098e-01 5.151341387639032e-01 4.707195401452112e-01
8.504256031905372e-01 5.247830668030912e-01 4.820013477889919e-01
8.451705116306315e-01 5.332719929190376e-01 4.919911981986660e-01
8.417533079841824e-01 5.386933026253931e-01 4.984036254144577e-01
8.369844012625143e-01 5.461338450598406e-01 5.072470518605612e-01
8.208293326319028e-01 5.703233495071932e-01 5.363568825278568e-01
7.942826731317090e-01 6.070389578825848e-01 5.817045503305587e-01
7.623226018629760e-01 6.469891358987735e-01 6.329131400689268e-01
7.323077742787819e-01 6.809298918793748e-01 6.782544153420194e-01
7.122098786565071e-01 7.019647732937389e-01 7.073569785881059e-01
4.641820757027363e-01 8.847293964097779e-01 1.016883977387486e+00
4.030747554866602e-01 9.140811066112814e-01 1.084705534588477e+00
3.043774023420243e-01 9.515951681557089e-01 1.190363718097799e+00
1.889884020168890e-01 9.814371024916001e-01 1.309679306070889e+00
8.453087395143087e-02 9.962767781174713e-01 1.415320141478605e+00
1.687503226683148e-02 9.998508504843151e-01 1.483121976289675e+00
7.008269703339651e-01 7.133286624821787e-01 7.234425934339291e-01
6.750380656917668e-01 7.377237166736983e-01 7.589561375426005e-01
6.331395642194958e-01 7.737907594582352e-01 8.142863031150041e-01
5.834721328776935e-01 8.116130623034300e-01 8.767770828577717e-01
5.375825449257529e-01 8.424573708019100e-01 9.321159789766326e-01
5.072563274668251e-01 8.609148991254210e-01 9.676394485080030e-01
4.989181105624470e-01 8.657388507079914e-01 9.772772463162399e-01
4.961485477197375e-01 8.673179129656855e-01 9.804668126475876e-01
4.918240125484835e-01 8.697606269083589e-01 9.854357811279069e-01
4.869258747753884e-01 8.724938773765348e-01 9.910473410530818e-01
4.825760223300798e-01 8.748916482902310e-01 9.960163415429136e-01
4.797776772515959e-01 8.764196165457178e-01 9.992059442646463e-01
5.168826214492115e-01 3.000000000000000e-01 2.718367087425746e+00
5.846976533834305e-01 3.000000000000000e-01 2.753889247010356e+00
6.903452034791921e-01 2.999999999999999e-01 2.809228439917691e+00
8.096547965207874e-01 2.999999999999999e-01 2.871723941034747e+00
9.153023466165575e-01 3.000000000000000e-01 2.927063133942068e+00
9.831173785507854e-01 3.000000000000000e-01 2.962585293526660e+00
1.057768500458407e+00 3.000000000000000e-01 3.001688262144921e+00
1.070715006554950e+00 2.999999999999999e-01 3.008469765338345e+00
1.090884084300523e+00 3.000000000000000e-01 3.019034520347923e+00
1.113661370244847e+00 3.000000000000000e-01 3.030965479652083e+00
1.133830447990420e+00 3.000000000000000e-01 3.041530234661658e+00
1.146776954086965e+00 2.999999999999999e-01 3.048311737855079e+00
1.001841740521729e+00 3.000000000000000e-01 2.972393292654295e+00
1.009239744005451e+00 3.000000000000000e-01 2.976268437336243e+00
1.020764931288608e+00 3.000000000000000e-01 2.982305440198846e+00
1.033780523256763e+00 2.999999999999999e-01 2.989123131229781e+00
1.045305710539920e+00 3.000000000000000e-01 2.995160134092385e+00
1.052703714023642e+00 3.000000000000000e-01 2.999035278774333e+00
1.135060971593723e-01 2.999999999999999e-01 2.507074622321568e+00
1.677581227067583e-01 2.999999999999999e-01 2.535492349989220e+00
2.522761627833781e-01 3.000000000000000e-01 2.579763704315047e+00
3.477238372166552e-01 2.999999999999999e-01 2.629760105208663e+00
4.322418772932615e-01 3.000000000000000e-01 2.674031459534515e+00
4.864939028406323e-01 3.000000000000000e-01 2.702449187202197e+00
1.516882621449212e+00 3.000000000000000e-01 3.242176611235259e+00
1.584697653383433e+00 3.000000000000000e-01 3.277698770819866e+00
1.690345203479197e+00 3.000000000000000e-01 3.333037963727203e+00
1.809654796520792e+00 3.000000000000000e-01 3.395533464844263e+00
1.915302346616560e+00 3.000000000000000e-01 3.450872657751589e+00
1.983117378550787e+00 3.000000000000000e-01 3.486394817336187e+00
1.161817835014451e+00 3.000000000000000e-01 3.056190294531372e+00
1.209288357368413e+00 3.000000000000000e-01 3.081055806240567e+00
1.283241642435455e+00 3.000000000000000e-01 3.119793241275662e+00
1.366758357564573e+00 3.000000000000000e-01 3.163540092057572e+00
1.440711642631604e+00 3.000000000000000e-01 3.202277527092688e+00
1.488182164985553e+00 3.000000000000000e-01 3.227143038801907e+00
8.645497179204786e-01 5.009905353632850e-01 5.454316903830886e+00
8.613358063732844e-01 5.065360022143089e-01 5.460729521877380e+00
8.562595335065575e-01 5.151341387642761e-01 5.470719540144608e+00
8.504256031897977e-01 5.247830668037855e-01 5.482001347788619e+00
8.451705116297215e-01 5.332719929200118e-01 5.491991198198499e+00
8.417533079831607e-01 5.386933026265444e-01 5.498403625414424e+00
9.961533271253297e-01 8.592418384217387e-02 5.015283379823330e+00
9.887948166356072e-01 1.468155374228854e-01 5.076677998107751e+00
9.699057734529000e-01 2.404816442778346e-01 5.172332309125817e+00
9.380670753122617e-01 3.436214899181051e-01 5.280364549126621e+00
9.009383449563292e-01 4.317257829632455e-01 5.376028381477313e+00
8.728438351827582e-01 4.862941241983074e-01 5.437433824198829e+00
8.369844012614825e-01 5.461338450610057e-01 5.507247051860441e+00
8.208293326309560e-01 5.703233495082323e-01 5.536356882527267e+00
7.942826731309313e-01 6.070389578834083e-01 5.581704550329273e+00
7.623226018624460e-01 6.469891358993183e-01 5.632913140066916e+00
7.323077742785251e-01 6.809298918796342e-01 5.678254415339431e+00
7.122098786564531e-01 7.019647732937931e-01 5.707356978585184e+00
7.008269703339561e-01 7.133286624821875e-01 5.723442593430942e+00
6.750380656917324e-01 7.377237166737388e-01 5.758956137539680e+00
6.331395642194487e-01 7.737907594583106e-01 5.814286303112217e+00
5.834721328776665e-01 8.116130623035267e-01 5.876777082855176e+00
5.375825449257670e-01 8.424573708020122e-01 5.932115978974231e+00
5.072563274668750e-01 8.609148991255215e-01 5.967639448505738e+00
4.989181105624446e-01 8.657388507081266e-01 5.977277246314083e+00
4.961485477194867e-01 8.673179129659631e-01 5.980466812645735e+00
4.918240125478444e-01 8.697606269088552e-01 5.985435781126525e+00
4.869258747743078e-01 8.724938773772734e-01 5.991047341052231e+00
4.825760223286064e-01 8.748916482911799e-01 5.996016341542535e+00
4.797776772498691e-01 8.764196165467998e-01 5.999205944264572e+00
4.641820757010034e-01 8.847293964108300e-01 6.016883977387494e+00
4.030747554851756e-01 9.140811066120941e-01 6.084705534588533e+00
3.043774023409640e-01 9.515951681561909e-01 6.190363718097931e+00
1.889884020163066e-01 9.814371024917952e-01 6.309679306071062e+00
8.453087395121349e-02 9.962767781175121e-01 6.415320141478732e+00
1.687503226679499e-02 9.998508504843168e-01 6.483121976289707e+00
1.135060971593723e-01 2.999999999999999e-01 7.507074622321567e+00
1.677581227067583e-01 2.999999999999999e-01 7.535492349989219e+00
2.522761627833781e-01 3.000000000000000e-01 7.579763704315047e+00
3.477238372166552e-01 3.000000000000000e-01 7.629760105208663e+00
4.322418772932615e-01 3.000000000000000e-01 7.674031459534515e+00
4.864939028406322e-01 3.000000000000000e-01 7.702449187202197e+00
5.168826214492114e-01 3.000000000000000e-01 7.718367087425746e+00
5.846976533834305e-01 3.000000000000000e-01 7.753889247010356e+00
6.903452034791921e-01 3.000000000000000e-01 7.809228439917693e+00
8.096547965207876e-01 3.000000000000000e-01 7.871723941034748e+00
9.153023466165577e-01 3.000000000000000e-01 7.927063133942069e+00
9.831173785507862e-01 3.000000000000000e-01 7.962585293526662e+00
1.057768500458402e+00 3.000000000000000e-01 8.001688262144921e+00
1.070715006554946e+00 3.000000000000000e-01 8.008469765338344e+00
1.090884084300520e+00 3.000000000000000e-01 8.019034520347921e+00
1.113661370244845e+00 2.999999999999999e-01 8.030965479652082e+00
1.133830447990420e+00 3.000000000000000e-01 8.041530234661659e+00
1.146776954086965e+00 3.000000000000000e-01 8.048311737855080e+00
1.001841740521729e+00 3.000000000000000e-01 7.972393292654297e+00
1.009239744005451e+00 3.000000000000000e-01 7.976268437336243e+00
1.020764931288608e+00 3.000000000000000e-01 7.982305440198846e+00
1.033780523256762e+00 2.999999999999999e-01 7.989123131229782e+00
1.045305710539918e+00 2.999999999999999e-01 7.995160134092383e+00
1.052703714023641e+00 3.000000000000000e-01 7.999035278774334e+00
1.161817835014451e+00 3.000000000000000e-01 8.056190294531373e+00
1.209288357368413e+00 3.000000000000000e-01 8.081055806240567e+00
1.283241642435455e+00 3.000000000000000e-01 8.119793241275664e+00
1.366758357564573e+00 3.000000000000000e-01 8.163540092057572e+00
1.440711642631603e+00 3.000000000000000e-01 8.202277527092688e+00
1.488182164985553e+00 3.000000000000000e-01 8.227143038801907e+00
1.516882621449212e+00 3.000000000000000e-01 8.242176611235257e+00
1.584697653383433e+00 3.000000000000000e-01 8.277698770819866e+00
1.690345203479196e+00 2.999999999999999e-01 8.333037963727202e+00
1.809654796520792e+00 3.000000000000000e-01 8.395533464844263e+00
1.915302346616560e+00 3.000000000000000e-01 8.450872657751589e+00
1.983117378550787e+00 3.000000000000000e-01 8.486394817336187e+00
        </DataArray>
      </Points>

      <Cells>
        <DataArray type="Int32" Name="connectivity" format="ascii">

        </DataArray>
        <DataArray type="Int32" Name="offsets" format="ascii">

        </DataArray>
        <DataArray type="UInt8" Name="types" format="ascii">

        </DataArray>
      </Cells>

  <PointData>
        <DataArray type="Float64" Name="displacement" NumberOfComponents="3" format="ascii">
-2.963463340131278e-02 -2.404459948826367e-02 1.433506304397750e-02
-2.536916569052516e-02 -1.955067497880011e-02 9.427894554862593e-03
-2.037525895535519e-02 -1.446617426043356e-02 3.965542720940685e-03
-1.679421775801448e-02 -1.093578409177420e-02 2.802078967421573e-04
-1.508660462001765e-02 -9.172876759078796e-03 -1.496950140753128e-03
-1.455719778737530e-02 -8.455144100516010e-03 -2.214563447380191e-03
-1.447512996364897e-02 -8.291064888917343e-03 -2.381979069881801e-03
-1.445035452401666e-02 -8.231211296681473e-03 -2.443736047799183e-03
-1.441843732845760e-02 -8.140117686906700e-03 -2.538602738501039e-03
-1.439176632060890e-02 -8.039716447524881e-03 -2.644582186288713e-03
-1.437604011177418e-02 -7.952323429596619e-03 -2.738215085083984e-03
-1.436967158262958e-02 -7.896676897994781e-03 -2.798569412404750e-03
-1.436545825819624e-02 -7.820164684264386e-03 -2.882543986951758e-03
-1.438598903470989e-02 -7.565193884652044e-03 -3.171009920547530e-03
-1.450576965494110e-02 -7.129764284408813e-03 -3.691593916200331e-03
-1.473130431044944e-02 -6.518629327846082e-03 -4.459729814103142e-03
-1.497262543242550e-02 -5.808328918196493e-03 -5.375463842316242e-03
-1.513133093382424e-02 -5.240868060346515e-03 -6.113160659882655e-03
-1.460365407092934e-02 -7.796875011503945e-03 -9.439718409786302e-03
-1.373501563690593e-02 -9.392768672370488e-03 -8.878244463642826e-03
-1.170270676403440e-02 -1.110276715890057e-02 -7.339339533934286e-03
-8.289006282531375e-03 -1.054785599299246e-02 -4.860390738289366e-03
-4.151699570103320e-03 -6.506004428148970e-03 -2.240828715015741e-03
-8.899700003052492e-04 -1.562840844592683e-03 -4.507972554987916e-04
-1.521528737723932e-02 -4.900150430296568e-03 -6.567106174465431e-03
-1.536613684359978e-02 -4.391820132695790e-03 -7.461080051831770e-03
-1.549380778428056e-02 -4.246201095928770e-03 -8.523967668292554e-03
-1.546296574195316e-02 -4.834388798224842e-03 -9.274571810947929e-03
-1.526285086006640e-02 -5.827784070920106e-03 -9.574290870777991e-03
-1.504105322357524e-02 -6.614355362419277e-03 -9.600647749373747e-03
-1.496760178059897e-02 -6.840324315303015e-03 -9.586700167211859e-03
-1.494201438322512e-02 -6.915948845652053e-03 -9.580159463385418e-03
-1.490087343693985e-02 -7.034472985337437e-03 -9.568083873732758e-03
-1.485252631829004e-02 -7.169224326639578e-03 -9.551708673279702e-03
-1.480803250398122e-02 -7.289201999226558e-03 -9.534808186416055e-03
-1.477863335982277e-02 -7.366478995263437e-03 -9.522782242401440e-03
-2.220446049250313e-16 -5.551115123125783e-17 0.000000000000000e+00
-1.110223024625157e-16 -1.110223024625157e-16 -4.440892098500626e-16
0.000000000000000e+00 -5.551115123125783e-17 -8.881784197001252e-16
-1.110223024625157e-16 0.000000000000000e+00 -8.881784197001252e-16
-2.220446049250313e-16 0.000000000000000e+00 -8.881784197001252e-16
-2.220446049250313e-16 0.000000000000000e+00 -8.881784197001252e-16
-2.220446049250313e-16 1.110223024625157e-16 -8.881784197001252e-16
-2.220446049250313e-16 1.110223024625157e-16 -4.440892098500626e-16
-2.220446049250313e-16 1.665334536937735e-16 -8.881784197001252e-16
-2.220446049250313e-16 1.665334536937735e-16 -8.881784197001252e-16
-2.220446049250313e-16 2.220446049250313e-16 -8.881784197001252e-16
-2.220446049250313e-16 2.220446049250313e-16 -8.881784197001252e-16
-2.220446049250313e-16 5.551115123125783e-17 -8.881784197001252e-16
0.000000000000000e+00 5.551115123125783e-17 -1.332267629550188e-15
-2.220446049250313e-16 1.110223024625157e-16 -4.440892098500626e-16
-2.220446049250313e-16 1.110223024625157e-16 -8.881784197001252e-16
-2.220446049250313e-16 1.110223024625157e-16 -8.881784197001252e-16
-2.220446049250313e-16 1.110223024625157e-16 -8.881784197001252e-16
0.000000000000000e+00 0.000000000000000e+00 0.000000000000000e+00
-2.775557561562891e-17 0.000000000000000e+00 0.000000000000000e+00
0.000000000000000e+00 0.000000000000000e+00 0.000000000000000e+00
-1.110223024625157e-16 0.000000000000000e+00 0.000000000000000e+00
-1.110223024625157e-16 -5.551115123125783e-17 -4.440892098500626e-16
-1.110223024625157e-16 -5.551115123125783e-17 -4.440892098500626e-16
-2.220446049250313e-16 7.216449660063518e-16 -1.332267629550188e-15
-2.220446049250313e-16 7.771561172376096e-16 -4.440892098500626e-16
2.220446049250313e-16 8.881784197001252e-16 -8.881784197001252e-16
2.220446049250313e-16 1.110223024625157e-15 -1.332267629550188e-15
2.220446049250313e-16 1.276756478318930e-15 -1.332267629550188e-15
4.440892098500626e-16 1.387778780781446e-15 -1.776356839400250e-15
-2.220446049250313e-16 2.220446049250313e-16 -8.881784197001252e-16
-2.220446049250313e-16 2.775557561562891e-16 -8.881784197001252e-16
-2.220446049250313e-16 3.885780586188048e-16 -8.881784197001252e-16
-2.220446049250313e-16 4.996003610813204e-16 -8.881784197001252e-16
2.220446049250313e-16 6.106226635438361e-16 -8.881784197001252e-16
-4.440892098500626e-16 6.661338147750939e-16 -1.332267629550188e-15
5.761659291081411e-04 5.200842797642435e-04 3.564046076576233e-05
5.647493869317399e-04 5.138504582333780e-04 3.810931973458054e-05
5.470801322031704e-04 5.043822783041829e-04 4.189732930814927e-05
5.273425464875636e-04 4.940776644632994e-04 4.607267774492385e-05
5.101031351142371e-04 4.853281155213773e-04 4.966181566246064e-05
4.991752653270565e-04 4.799112779385606e-04 5.190458509041207e-05
8.767323253507930e-04 8.142811390543375e-04 2.936998828673154e-05
9.537119195266452e-04 8.311531918736847e-04 -1.226518514751973e-05
9.670361903879598e-04 7.997238828594266e-04 -3.853862807723374e-05
8.665567960096654e-04 7.074091937153693e-04 -2.689919999365742e-05
7.158790950902993e-04 6.030535275365900e-04 4.782839968520136e-06
6.064111511532300e-04 5.370184079041551e-04 2.903502745166264e-05
4.843052898918510e-04 4.727128924501001e-04 5.491037997540360e-05
4.373428976832683e-04 4.514784674757299e-04 6.396243189321638e-05
3.722088103523813e-04 4.272553775419574e-04 7.475672903378694e-05
3.147348917674764e-04 4.158246573621183e-04 8.048217665113100e-05
2.824095172495600e-04 4.227562309081501e-04 7.820729136831517e-05
2.727460895972644e-04 4.369403453786669e-04 7.240149211806823e-05
2.710636546119360e-04 4.477311451890342e-04 6.779443064441892e-05
2.670444439889508e-04 4.672612381843022e-04 5.837148824650029e-05
2.580463568611080e-04 4.842739786056205e-04 4.643518354541243e-05
2.442487464816567e-04 4.857328698645302e-04 3.647025891062583e-05
2.291835805240394e-04 4.731936708194384e-04 3.025582491655854e-05
2.182669411746607e-04 4.591272996985474e-04 2.733785739739147e-05
2.151515752651378e-04 4.545728400751070e-04 2.667114430021655e-05
2.141067790044082e-04 4.529994983124563e-04 2.646136397022048e-05
2.124656870410857e-04 4.504841562122941e-04 2.614499410036331e-05
2.105929785475857e-04 4.475507809881263e-04 2.580264150875422e-05
2.089178074288212e-04 4.448725372838691e-04 2.551234711933859e-05
2.078342678861200e-04 4.431139989485855e-04 2.533221099909611e-05
2.017150975447413e-04 4.328252853796899e-04 2.441752636705985e-05
1.766199702997739e-04 3.856903955828939e-04 2.199493522336837e-05
1.335601680074183e-04 2.938999945705234e-04 2.009488208720711e-05
8.171451762392645e-05 1.765009317142852e-04 1.719333100691500e-05
3.554544020377415e-05 7.352952611838770e-05 1.045462417170739e-05
6.915497574616625e-06 1.368338196572338e-05 2.531153617368886e-06
0.000000000000000e+00 0.000000000000000e+00 0.000000000000000e+00
0.000000000000000e+00 5.551115123125783e-17 0.000000000000000e+00
0.000000000000000e+00 5.551115123125783e-17 -8.881784197001252e-16
-1.110223024625157e-16 1.665334536937735e-16 0.000000000000000e+00
-1.665334536937735e-16 2.220446049250313e-16 0.000000000000000e+00
-2.220446049250313e-16 2.775557561562891e-16 0.000000000000000e+00
-2.220446049250313e-16 3.330669073875470e-16 8.881784197001252e-16
-2.220446049250313e-16 3.885780586188048e-16 8.881784197001252e-16
-3.330669073875470e-16 5.551115123125783e-16 8.881784197001252e-16
-5.551115123125783e-16 6.661338147750939e-16 8.881784197001252e-16
-5.551115123125783e-16 6.661338147750939e-16 8.881784197001252e-16
-5.551115123125783e-16 7.216449660063518e-16 8.881784197001252e-16
-4.440892098500626e-16 7.216449660063518e-16 0.000000000000000e+00
-4.440892098500626e-16 6.661338147750939e-16 0.000000000000000e+00
-2.220446049250313e-16 7.216449660063518e-16 0.000000000000000e+00
-4.440892098500626e-16 7.216449660063518e-16 0.000000000000000e+00
-2.220446049250313e-16 6.661338147750939e-16 0.000000000000000e+00
-2.220446049250313e-16 6.661338147750939e-16 0.000000000000000e+00
-6.661338147750939e-16 7.216449660063518e-16 8.881784197001252e-16
-4.440892098500626e-16 7.216449660063518e-16 8.881784197001252e-16
-4.440892098500626e-16 7.216449660063518e-16 8.881784197001252e-16
-4.440892098500626e-16 7.771561172376096e-16 0.000000000000000e+00
-4.440892098500626e-16 7.771561172376096e-16 8.881784197001252e-16
-2.220446049250313e-16 7.216449660063518e-16 0.000000000000000e+00
-2.220446049250313e-16 6.661338147750939e-16 0.000000000000000e+00
-2.220446049250313e-16 6.106226635438361e-16 0.000000000000000e+00
-2.220446049250313e-16 4.440892098500626e-16 0.000000000000000e+00
2.220446049250313e-16 3.330669073875470e-16 -1.776356839400250e-15
6.661338147750939e-16 5.551115123125783e-17 -1.776356839400250e-15
0.000000000000000e+00 0.000000000000000e+00 -1.776356839400250e-15
4.440892098500626e-16 -5.551115123125783e-17 0.000000000000000e+00
4.440892098500626e-16 -2.220446049250313e-16 0.000000000000000e+00
6.661338147750939e-16 -4.996003610813204e-16 -1.776356839400250e-15
2.220446049250313e-16 -8.881784197001252e-16 -1.776356839400250e-15
2.220446049250313e-16 -1.110223024625157e-15 -1.776356839400250e-15
-4.440892098500626e-16 -1.276756478318930e-15 0.000000000000000e+00
        </DataArray>
        <DataArray type="Float64" Name="projection_direction" NumberOfComponents="3" format="ascii">
1.447016143621305e-02 8.960623814017868e-03 -3.459101789801203e-03
1.532115641044385e-03 1.424600326526304e-03 -3.778494746164013e-04
-9.205693651193947e-03 -5.687248956719931e-03 2.010418173083645e-03
-8.387149984450559e-03 -6.196740381406718e-03 1.866506688078973e-03
2.945428871623412e-03 8.087696879316431e-04 -8.935655490799332e-05
1.509038421687192e-02 9.377956081350669e-03 -1.950899274159534e-03
1.834026922443088e-02 1.190553172761538e-02 -2.449613032146192e-03
1.702451272303362e-02 1.136972491850607e-02 -2.389931253317767e-03
1.507123165942126e-02 1.053828097352405e-02 -2.297720764940281e-03
1.300405980238573e-02 9.606444107643775e-03 -2.193902389338809e-03
1.129380054008822e-02 8.789914792337150e-03 -2.101446165430232e-03
1.025434496967048e-02 8.271035115403280e-03 -2.041484721305220e-03
8.803256474641974e-03 7.618651611279614e-03 -1.957894909299429e-03
4.531424747938106e-03 5.495498357232176e-03 -1.695934318888370e-03
-4.867622662755311e-04 2.221552799742010e-03 -1.295794465014377e-03
-3.988798247888337e-03 -1.225707898158013e-03 -7.776624570127177e-04
-5.403924712415797e-03 -3.865068727876286e-03 -1.831852196655381e-04
-5.580013056316169e-03 -5.273507567922997e-03 2.989346959109129e-04
3.181165533577557e-03 6.199667995179681e-03 -2.883552479768792e-04
-3.166204642469639e-04 1.890295437042555e-03 -1.881029337036377e-04
-2.376012308319075e-03 -2.170687639715840e-03 -2.391979065066163e-04
-1.707831818917593e-03 -3.409351230182822e-03 -3.698088683625755e-04
-3.757350574858931e-04 -2.158944420963205e-03 -3.141663768877478e-04
2.165792643037817e-05 -4.940479182681257e-04 -8.796960818324706e-05
-5.457765905800382e-03 -5.919735140459736e-03 5.949937913818371e-04
-4.714815559516139e-03 -6.648999611431172e-03 1.098324523352234e-03
-2.495224003355667e-03 -5.736483900090183e-03 1.435723658711696e-03
1.077450410862713e-03 -1.578453900790033e-03 1.191006303441267e-03
4.683642067416338e-03 4.992852311088258e-03 4.467001095330714e-04
6.989108576822001e-03 1.069338653145002e-02 -2.815680761746320e-04
7.429739642198285e-03 1.212756877432897e-02 -4.868197896011894e-04
6.979145316257096e-03 1.145214902542013e-02 -4.641748162874659e-04
6.292637725962003e-03 1.041638049821436e-02 -4.299946499639606e-04
5.539764243708112e-03 9.270702342587533e-03 -3.929787738790047e-04
4.892711758562873e-03 8.277432006346563e-03 -3.615808463595105e-04
4.486973250537429e-03 7.650326610852187e-03 -3.420988749145426e-04
1.110223024625157e-16 5.551115123125783e-17 -4.440892098500626e-16
1.110223024625157e-16 5.551115123125783e-17 4.440892098500626e-16
-1.110223024625157e-16 5.551115123125783e-17 0.000000000000000e+00
-1.110223024625157e-16 0.000000000000000e+00 4.440892098500626e-16
-1.110223024625157e-16 -1.110223024625157e-16 -4.440892098500626e-16
-2.220446049250313e-16 -5.551115123125783e-17 -4.440892098500626e-16
-2.220446049250313e-16 -1.110223024625157e-16 -4.440892098500626e-16
-2.220446049250313e-16 0.000000000000000e+00 -8.881784197001252e-16
-2.220446049250313e-16 -1.110223024625157e-16 0.000000000000000e+00
0.000000000000000e+00 0.000000000000000e+00 0.000000000000000e+00
-2.220446049250313e-16 -5.551115123125783e-17 0.000000000000000e+00
-2.220446049250313e-16 5.551115123125783e-17 0.000000000000000e+00
-2.220446049250313e-16 -1.110223024625157e-16 -1.332267629550188e-15
-4.440892098500626e-16 -1.110223024625157e-16 0.000000000000000e+00
-2.220446049250313e-16 -1.665334536937735e-16 -8.881784197001252e-16
-2.220446049250313e-16 0.000000000000000e+00 -4.440892098500626e-16
-2.220446049250313e-16 -1.665334536937735e-16 -8.881784197001252e-16
-2.220446049250313e-16 -5.551115123125783e-17 -4.440892098500626e-16
-6.938893903907228e-17 0.000000000000000e+00 -4.440892098500626e-16
-5.551115123125783e-17 0.000000000000000e+00 0.000000000000000e+00
-1.110223024625157e-16 -1.110223024625157e-16 0.000000000000000e+00
0.000000000000000e+00 0.000000000000000e+00 0.000000000000000e+00
0.000000000000000e+00 0.000000000000000e+00 8.881784197001252e-16
5.551115123125783e-17 -5.551115123125783e-17 4.440892098500626e-16
4.440892098500626e-16 0.000000000000000e+00 4.440892098500626e-16
2.220446049250313e-16 1.110223024625157e-16 0.000000000000000e+00
0.000000000000000e+00 0.000000000000000e+00 0.000000000000000e+00
-2.220446049250313e-16 0.000000000000000e+00 0.000000000000000e+00
0.000000000000000e+00 5.551115123125783e-17 -8.881784197001252e-16
-4.440892098500626e-16 5.551115123125783e-17 4.440892098500626e-16
0.000000000000000e+00 0.000000000000000e+00 0.000000000000000e+00
0.000000000000000e+00 5.551115123125783e-17 0.000000000000000e+00
0.000000000000000e+00 1.110223024625157e-16 4.440892098500626e-16
0.000000000000000e+00 1.110223024625157e-16 4.440892098500626e-16
-2.220446049250313e-16 1.110223024625157e-16 4.440892098500626e-16
4.440892098500626e-16 5.551115123125783e-17 8.881784197001252e-16
7.593395844240902e-05 1.132787014124226e-04 -3.438206585393289e-05
5.473972556391260e-05 1.098850466004775e-04 -3.751296284804084e-05
2.657360282865007e-05 1.061954545311661e-04 -4.212631711020265e-05
1.218663018720534e-06 1.041573343408819e-04 -4.693916026177192e-05
-1.613983712644984e-05 1.040222258515966e-04 -5.083921629100985e-05
-2.502007345472901e-05 1.046663302791684e-04 -5.315928583637941e-05
7.937433557470008e-05 2.225373669684227e-04 -1.030125431791262e-04
-7.086649482401786e-05 3.082385231778506e-07 -4.765382644045246e-06
-1.248797077646469e-05 -1.183146438744342e-04 5.757577645404410e-05
4.111641537585253e-05 -7.578322518481118e-05 4.055189396545700e-05
4.975533914319819e-06 -5.065090360245605e-06 -5.314455136407048e-06
4.828260287392805e-05 7.935185793472854e-05 -2.969124043161742e-05
-2.831651431411952e-05 1.078601927778644e-04 -5.505420724727372e-05
-2.552747619843920e-05 1.180123054791427e-04 -5.766707435217455e-05
-9.657703142429419e-06 1.220926005798262e-04 -5.345785204458053e-05
2.981215500574841e-06 9.900508352156390e-05 -3.789045397528668e-05
2.776185696884426e-07 5.097042985191536e-05 -1.589799556445115e-05
-7.331186354542218e-06 9.623404577885353e-06 1.667549790695944e-06
-1.195581122470646e-05 -1.432859710137624e-05 1.215260979758881e-05
-1.521623327860322e-05 -5.777113413252266e-05 3.226424415192497e-05
-1.447863471204514e-05 -1.085189624487892e-04 5.199761547203252e-05
-1.650562987276505e-05 -1.470933747630410e-04 5.249474626811690e-05
-1.258437052986672e-05 -1.436294761952839e-04 2.903054658531801e-05
1.451439025634826e-06 -1.004879614250331e-04 2.205853784076339e-07
5.583514322171634e-06 -8.477616322266623e-05 -8.982427513792857e-06
-4.360902041145032e-07 -9.479318311733653e-05 -9.857572260685288e-06
-9.132306866665996e-06 -1.092374826678899e-04 -1.125202921681279e-05
-1.802596431915715e-05 -1.239242852861810e-04 -1.287025969265443e-05
-2.514890114341251e-05 -1.355647370604451e-04 -1.433957086760529e-05
-2.937775413752730e-05 -1.423939095240856e-04 -1.529981099679389e-05
-2.780116547340672e-05 -1.309347855427134e-04 -1.669240107649017e-05
1.526372345100890e-05 1.058756611060918e-05 -1.791803619344279e-05
4.802136616094410e-05 2.217500031407305e-04 -1.215000859478010e-05
-8.132287631495982e-06 9.837656605249379e-05 -1.903920884060994e-06
-2.388081813511911e-05 -1.574723875600315e-04 3.059827277773763e-06
-2.508557693518126e-06 -8.367277742238333e-05 1.260087351795391e-06
6.938893903907228e-17 -2.220446049250313e-16 -2.664535259100376e-15
5.551115123125783e-17 -2.775557561562891e-16 0.000000000000000e+00
5.551115123125783e-17 -2.220446049250313e-16 0.000000000000000e+00
0.000000000000000e+00 5.551115123125783e-17 0.000000000000000e+00
-5.551115123125783e-17 2.220446049250313e-16 1.776356839400250e-15
-2.220446049250313e-16 3.330669073875470e-16 8.881784197001252e-16
-2.220446049250313e-16 3.330669073875470e-16 8.881784197001252e-16
-2.220446049250313e-16 2.775557561562891e-16 -8.881784197001252e-16
0.000000000000000e+00 5.551115123125783e-17 0.000000000000000e+00
0.000000000000000e+00 -1.665334536937735e-16 0.000000000000000e+00
0.000000000000000e+00 -2.220446049250313e-16 -1.776356839400250e-15
-1.110223024625157e-16 -2.220446049250313e-16 -1.776356839400250e-15
-2.220446049250313e-16 -1.665334536937735e-16 -1.776356839400250e-15
-2.220446049250313e-16 -5.551115123125783e-17 -1.776356839400250e-15
-2.220446049250313e-16 -1.110223024625157e-16 -1.776356839400250e-15
0.000000000000000e+00 0.000000000000000e+00 0.000000000000000e+00
-2.220446049250313e-16 0.000000000000000e+00 -1.776356839400250e-15
0.000000000000000e+00 0.000000000000000e+00 -1.776356839400250e-15
-2.220446049250313e-16 -2.775557561562891e-16 -2.664535259100376e-15
-2.220446049250313e-16 -2.220446049250313e-16 -2.664535259100376e-15
-4.440892098500626e-16 -2.220446049250313e-16 -1.776356839400250e-15
-2.220446049250313e-16 -2.220446049250313e-16 -8.881784197001252e-16
0.000000000000000e+00 -1.665334536937735e-16 -2.664535259100376e-15
-4.440892098500626e-16 -1.665334536937735e-16 -1.776356839400250e-15
0.000000000000000e+00 5.551115123125783e-17 -1.776356839400250e-15
0.000000000000000e+00 1.110223024625157e-16 -1.776356839400250e-15
6.661338147750939e-16 3.330669073875470e-16 -1.776356839400250e-15
2.220446049250313e-16 3.885780586188048e-16 1.776356839400250e-15
2.220446049250313e-16 4.440892098500626e-16 3.552713678800501e-15
1.110223024625157e-15 2.775557561562891e-16 5.329070518200751e-15
6.661338147750939e-16 2.220446049250313e-16 3.552713678800501e-15
4.440892098500626e-16 -1.665334536937735e-16 5.329070518200751e-15
-4.440892098500626e-16 -4.996003610813204e-16 7.105427357601002e-15
4.440892098500626e-16 -3.885780586188048e-16 3.552713678800501e-15
2.220446049250313e-16 1.665334536937735e-16 0.000000000000000e+00
4.440892098500626e-16 8.881784197001252e-16 -1.776356839400250e-15
        </DataArray>