<?xml version="1.0" ?> 
<!-- 
# vtk DataFile Version 3.0
-->
<VTKFile type="UnstructuredGrid" version="0.1" compressor="vtkZLibDataCompressor" byte_order="LittleEndian">
  <UnstructuredGrid>
    <FieldData>
      <DataArray type="Float64" Name="TIME" NumberOfTuples="1" format="ascii">
1.000000000000000e+00 
      </DataArray>
    </FieldData>

    <Piece NumberOfPoints="207" NumberOfCells="0" >
      <Points>
        <DataArray type="Float64" NumberOfComponents="3" format="ascii">
8.660254037839999e-01 5.000000000000000e-01 1.100000000000000e+01
5.000000000000000e-01 8.660254037839999e-01 1.100000000000000e+01
5.000000000000000e-01 8.660254037839999e-01 1.150000000000000e+01
8.660254037839999e-01 5.000000000000000e-01 1.150000000000000e+01
7.071067811870000e-01 7.071067811870000e-01 1.100000000000000e+01
5.000000000000000e-01 8.660254037839999e-01 1.125000000000000e+01
7.071067811870000e-01 7.071067811870000e-01 1.150000000000000e+01
8.660254037839999e-01 5.000000000000000e-01 1.125000000000000e+01
7.071067811870000e-01 7.071067811870000e-01 1.125000000000000e+01
5.000000000000000e-01 8.660254037839999e-01 1.100000000000000e+01
0.000000000000000e+00 1.000000000000000e+00 1.100000000000000e+01
0.000000000000000e+00 1.000000000000000e+00 1.150000000000000e+01
5.000000000000000e-01 8.660254037839999e-01 1.150000000000000e+01
2.588190451030000e-01 9.659258262890000e-01 1.100000000000000e+01
0.000000000000000e+00 1.000000000000000e+00 1.125000000000000e+01
2.588190451030000e-01 9.659258262890000e-01 1.150000000000000e+01
5.000000000000000e-01 8.660254037839999e-01 1.125000000000000e+01
2.588190451030000e-01 9.659258262890000e-01 1.125000000000000e+01
1.000000000000000e+00 0.000000000000000e+00 1.100000000000000e+01
8.660254037839999e-01 5.000000000000000e-01 1.100000000000000e+01
8.660254037839999e-01 5.000000000000000e-01 1.150000000000000e+01
1.000000000000000e+00 0.000000000000000e+00 1.150000000000000e+01
9.659258262890000e-01 2.588190451030000e-01 1.100000000000000e+01
8.660254037839999e-01 5.000000000000000e-01 1.125000000000000e+01
9.659258262890000e-01 2.588190451030000e-01 1.150000000000000e+01
1.000000000000000e+00 0.000000000000000e+00 1.125000000000000e+01
9.659258262890000e-01 2.588190451030000e-01 1.125000000000000e+01
5.000000000000000e-01 8.660254037839999e-01 1.050000000000000e+01
0.000000000000000e+00 1.000000000000000e+00 1.050000000000000e+01
0.000000000000000e+00 1.000000000000000e+00 1.100000000000000e+01
5.000000000000000e-01 8.660254037839999e-01 1.100000000000000e+01
2.588190451030000e-01 9.659258262890000e-01 1.050000000000000e+01
0.000000000000000e+00 1.000000000000000e+00 1.075000000000000e+01
2.588190451030000e-01 9.659258262890000e-01 1.100000000000000e+01
5.000000000000000e-01 8.660254037839999e-01 1.075000000000000e+01
2.588190451030000e-01 9.659258262890000e-01 1.075000000000000e+01
8.660254037839999e-01 5.000000000000000e-01 1.050000000000000e+01
5.000000000000000e-01 8.660254037839999e-01 1.050000000000000e+01
5.000000000000000e-01 8.660254037839999e-01 1.100000000000000e+01
8.660254037839999e-01 5.000000000000000e-01 1.100000000000000e+01
7.071067811870000e-01 7.071067811870000e-01 1.050000000000000e+01
5.000000000000000e-01 8.660254037839999e-01 1.075000000000000e+01
7.071067811870000e-01 7.071067811870000e-01 1.100000000000000e+01
8.660254037839999e-01 5.000000000000000e-01 1.075000000000000e+01
7.071067811870000e-01 7.071067811870000e-01 1.075000000000000e+01
1.000000000000000e+00 0.000000000000000e+00 1.050000000000000e+01
8.660254037839999e-01 5.000000000000000e-01 1.050000000000000e+01
8.660254037839999e-01 5.000000000000000e-01 1.100000000000000e+01
1.000000000000000e+00 0.000000000000000e+00 1.100000000000000e+01
9.659258262890000e-01 2.588190451030000e-01 1.050000000000000e+01
8.660254037839999e-01 5.000000000000000e-01 1.075000000000000e+01
9.659258262890000e-01 2.588190451030000e-01 1.100000000000000e+01
1.000000000000000e+00 0.000000000000000e+00 1.075000000000000e+01
9.659258262890000e-01 2.588190451030000e-01 1.075000000000000e+01
5.000000000000000e-01 8.660254037839999e-01 1.000000000000000e+01
0.000000000000000e+00 1.000000000000000e+00 1.000000000000000e+01
0.000000000000000e+00 1.000000000000000e+00 1.050000000000000e+01
5.000000000000000e-01 8.660254037839999e-01 1.050000000000000e+01
2.588190451030000e-01 9.659258262890000e-01 1.000000000000000e+01
0.000000000000000e+00 1.000000000000000e+00 1.025000000000000e+01
2.588190451030000e-01 9.659258262890000e-01 1.050000000000000e+01
5.000000000000000e-01 8.660254037839999e-01 1.025000000000000e+01
2.588190451030000e-01 9.659258262890000e-01 1.025000000000000e+01
8.660254037839999e-01 5.000000000000000e-01 1.000000000000000e+01
5.000000000000000e-01 8.660254037839999e-01 1.000000000000000e+01
5.000000000000000e-01 8.660254037839999e-01 1.050000000000000e+01
8.660254037839999e-01 5.000000000000000e-01 1.050000000000000e+01
7.071067811870000e-01 7.071067811870000e-01 1.000000000000000e+01
5.000000000000000e-01 8.660254037839999e-01 1.025000000000000e+01
7.071067811870000e-01 7.071067811870000e-01 1.050000000000000e+01
8.660254037839999e-01 5.000000000000000e-01 1.025000000000000e+01
7.071067811870000e-01 7.071067811870000e-01 1.025000000000000e+01
1.000000000000000e+00 0.000000000000000e+00 1.000000000000000e+01
8.660254037839999e-01 5.000000000000000e-01 1.000000000000000e+01
8.660254037839999e-01 5.000000000000000e-01 1.050000000000000e+01
1.000000000000000e+00 0.000000000000000e+00 1.050000000000000e+01
9.659258262890000e-01 2.588190451030000e-01 1.000000000000000e+01
8.660254037839999e-01 5.000000000000000e-01 1.025000000000000e+01
9.659258262890000e-01 2.588190451030000e-01 1.050000000000000e+01
1.000000000000000e+00 0.000000000000000e+00 1.025000000000000e+01
9.659258262890000e-01 2.588190451030000e-01 1.025000000000000e+01
1.500000000000000e+00 3.000000000000000e-01 1.250000000000000e+01
1.500000000000000e+00 3.000000000000000e-01 1.300000000000000e+01
2.000000000000000e+00 3.000000000000000e-01 1.300000000000000e+01
2.000000000000000e+00 3.000000000000000e-01 1.250000000000000e+01
1.500000000000000e+00 3.000000000000000e-01 1.275000000000000e+01
1.750000000000000e+00 3.000000000000000e-01 1.300000000000000e+01
2.000000000000000e+00 3.000000000000000e-01 1.275000000000000e+01
1.750000000000000e+00 3.000000000000000e-01 1.250000000000000e+01
1.750000000000000e+00 3.000000000000000e-01 1.275000000000000e+01
5.000000000000000e-01 3.000000000000000e-01 1.250000000000000e+01
5.000000000000000e-01 3.000000000000000e-01 1.300000000000000e+01
1.000000000000000e+00 3.000000000000000e-01 1.300000000000000e+01
1.000000000000000e+00 3.000000000000000e-01 1.250000000000000e+01
5.000000000000000e-01 3.000000000000000e-01 1.275000000000000e+01
7.500000000000000e-01 3.000000000000000e-01 1.300000000000000e+01
1.000000000000000e+00 3.000000000000000e-01 1.275000000000000e+01
7.500000000000000e-01 3.000000000000000e-01 1.250000000000000e+01
7.500000000000000e-01 3.000000000000000e-01 1.275000000000000e+01
1.000000000000000e+00 3.000000000000000e-01 1.300000000000000e+01
1.000000000000000e+00 3.000000000000000e-01 1.350000000000000e+01
1.500000000000000e+00 3.000000000000000e-01 1.350000000000000e+01
1.500000000000000e+00 3.000000000000000e-01 1.300000000000000e+01
1.000000000000000e+00 3.000000000000000e-01 1.325000000000000e+01
1.250000000000000e+00 3.000000000000000e-01 1.350000000000000e+01
1.500000000000000e+00 3.000000000000000e-01 1.325000000000000e+01
1.250000000000000e+00 3.000000000000000e-01 1.300000000000000e+01
1.250000000000000e+00 3.000000000000000e-01 1.325000000000000e+01
1.000000000000000e+00 3.000000000000000e-01 1.250000000000000e+01
1.000000000000000e+00 3.000000000000000e-01 1.300000000000000e+01
1.500000000000000e+00 3.000000000000000e-01 1.300000000000000e+01
1.500000000000000e+00 3.000000000000000e-01 1.250000000000000e+01
1.000000000000000e+00 3.000000000000000e-01 1.275000000000000e+01
1.250000000000000e+00 3.000000000000000e-01 1.300000000000000e+01
1.500000000000000e+00 3.000000000000000e-01 1.275000000000000e+01
1.250000000000000e+00 3.000000000000000e-01 1.250000000000000e+01
1.250000000000000e+00 3.000000000000000e-01 1.275000000000000e+01
5.000000000000000e-01 3.000000000000000e-01 1.300000000000000e+01
5.000000000000000e-01 3.000000000000000e-01 1.350000000000000e+01
1.000000000000000e+00 3.000000000000000e-01 1.350000000000000e+01
1.000000000000000e+00 3.000000000000000e-01 1.300000000000000e+01
5.000000000000000e-01 3.000000000000000e-01 1.325000000000000e+01
7.500000000000000e-01 3.000000000000000e-01 1.350000000000000e+01
1.000000000000000e+00 3.000000000000000e-01 1.325000000000000e+01
7.500000000000000e-01 3.000000000000000e-01 1.300000000000000e+01
7.500000000000000e-01 3.000000000000000e-01 1.325000000000000e+01
0.000000000000000e+00 3.000000000000000e-01 1.250000000000000e+01
0.000000000000000e+00 3.000000000000000e-01 1.300000000000000e+01
5.000000000000000e-01 3.000000000000000e-01 1.300000000000000e+01
5.000000000000000e-01 3.000000000000000e-01 1.250000000000000e+01
0.000000000000000e+00 3.000000000000000e-01 1.275000000000000e+01
2.500000000000000e-01 3.000000000000000e-01 1.300000000000000e+01
5.000000000000000e-01 3.000000000000000e-01 1.275000000000000e+01
2.500000000000000e-01 3.000000000000000e-01 1.250000000000000e+01
2.500000000000000e-01 3.000000000000000e-01 1.275000000000000e+01
0.000000000000000e+00 3.000000000000000e-01 1.300000000000000e+01
0.000000000000000e+00 3.000000000000000e-01 1.350000000000000e+01
5.000000000000000e-01 3.000000000000000e-01 1.350000000000000e+01
5.000000000000000e-01 3.000000000000000e-01 1.300000000000000e+01
0.000000000000000e+00 3.000000000000000e-01 1.325000000000000e+01
2.500000000000000e-01 3.000000000000000e-01 1.350000000000000e+01
5.000000000000000e-01 3.000000000000000e-01 1.325000000000000e+01
2.500000000000000e-01 3.000000000000000e-01 1.300000000000000e+01
2.500000000000000e-01 3.000000000000000e-01 1.325000000000000e+01
1.500000000000000e+00 3.000000000000000e-01 1.300000000000000e+01
1.500000000000000e+00 3.000000000000000e-01 1.350000000000000e+01
2.000000000000000e+00 3.000000000000000e-01 1.350000000000000e+01
2.000000000000000e+00 3.000000000000000e-01 1.300000000000000e+01
1.500000000000000e+00 3.000000000000000e-01 1.325000000000000e+01
1.750000000000000e+00 3.000000000000000e-01 1.350000000000000e+01
2.000000000000000e+00 3.000000000000000e-01 1.325000000000000e+01
1.750000000000000e+00 3.000000000000000e-01 1.300000000000000e+01
1.750000000000000e+00 3.000000000000000e-01 1.325000000000000e+01
0.000000000000000e+00 1.000000000000000e+00 1.550000000000000e+01
4.329390516020000e-01 9.014231956180000e-01 1.574976147080000e+01
5.000000000000000e-01 8.660254037839999e-01 1.500000000000000e+01
7.282793318550000e-01 6.852803913680000e-01 1.548410264420000e+01
5.000000000000000e-01 8.660254037839999e-01 1.500000000000000e+01
4.329390516020000e-01 9.014231956180000e-01 1.574976147080000e+01
4.329390516020000e-01 9.014231956180000e-01 1.574976147080000e+01
0.000000000000000e+00 1.000000000000000e+00 1.600000000000000e+01
5.000000000000000e-01 8.660254037839999e-01 1.650000000000000e+01
0.000000000000000e+00 1.000000000000000e+00 1.650000000000000e+01
5.000000000000000e-01 8.660254037839999e-01 1.650000000000000e+01
0.000000000000000e+00 1.000000000000000e+00 1.600000000000000e+01
0.000000000000000e+00 1.000000000000000e+00 1.550000000000000e+01
5.000000000000000e-01 8.660254037839999e-01 1.500000000000000e+01
0.000000000000000e+00 1.000000000000000e+00 1.500000000000000e+01
9.504792740630000e-01 3.107879495360000e-01 1.574983937880000e+01
1.000000000000000e+00 0.000000000000000e+00 1.600000000000000e+01
1.000000000000000e+00 0.000000000000000e+00 1.550000000000000e+01
7.283520826140000e-01 6.852030675290000e-01 1.601496824100000e+01
5.000000000000000e-01 8.660254037839999e-01 1.650000000000000e+01
8.660254037839999e-01 5.000000000000000e-01 1.650000000000000e+01
7.282793318550000e-01 6.852803913680000e-01 1.548410264420000e+01
8.660254037839999e-01 5.000000000000000e-01 1.500000000000000e+01
5.000000000000000e-01 8.660254037839999e-01 1.500000000000000e+01
8.660254037839999e-01 5.000000000000000e-01 1.650000000000000e+01
1.000000000000000e+00 0.000000000000000e+00 1.650000000000000e+01
9.504792740630000e-01 3.107879495360000e-01 1.574983937880000e+01
8.660254037839999e-01 5.000000000000000e-01 1.500000000000000e+01
7.282793318550000e-01 6.852803913680000e-01 1.548410264420000e+01
9.504792740630000e-01 3.107879495360000e-01 1.574983937880000e+01
9.504792740630000e-01 3.107879495360000e-01 1.574983937880000e+01
7.283520826140000e-01 6.852030675290000e-01 1.601496824100000e+01
8.660254037839999e-01 5.000000000000000e-01 1.650000000000000e+01
7.282793318550000e-01 6.852803913680000e-01 1.548410264420000e+01
4.329390516020000e-01 9.014231956180000e-01 1.574976147080000e+01
7.283520826140000e-01 6.852030675290000e-01 1.601496824100000e+01
9.504792740630000e-01 3.107879495360000e-01 1.574983937880000e+01
1.000000000000000e+00 0.000000000000000e+00 1.500000000000000e+01
8.660254037839999e-01 5.000000000000000e-01 1.500000000000000e+01
4.329390516020000e-01 9.014231956180000e-01 1.574976147080000e+01
5.000000000000000e-01 8.660254037839999e-01 1.650000000000000e+01
7.283520826140000e-01 6.852030675290000e-01 1.601496824100000e+01
1.000000000000000e+00 0.000000000000000e+00 1.550000000000000e+01
1.000000000000000e+00 0.000000000000000e+00 1.500000000000000e+01
9.504792740630000e-01 3.107879495360000e-01 1.574983937880000e+01
9.504792740630000e-01 3.107879495360000e-01 1.574983937880000e+01
1.000000000000000e+00 0.000000000000000e+00 1.650000000000000e+01
1.000000000000000e+00 0.000000000000000e+00 1.600000000000000e+01
7.282793318550000e-01 6.852803913680000e-01 1.548410264420000e+01
7.283520826140000e-01 6.852030675290000e-01 1.601496824100000e+01
9.504792740630000e-01 3.107879495360000e-01 1.574983937880000e+01
4.329390516020000e-01 9.014231956180000e-01 1.574976147080000e+01
0.000000000000000e+00 1.000000000000000e+00 1.550000000000000e+01
0.000000000000000e+00 1.000000000000000e+00 1.600000000000000e+01
        </DataArray>
      </Points>

      <Cells>
        <DataArray type="Int32" Name="connectivity" format="ascii">

        </DataArray>
        <DataArray type="Int32" Name="offsets" format="ascii">

        </DataArray>
        <DataArray type="UInt8" Name="types" format="ascii">

        </DataArray>
      </Cells>

  <PointData>
        <DataArray type="Int32" Name="coupling_id" format="ascii">
5
5
5
5
5
5
5
5
5
5
5
5
5
5
5
5
5
5
5
5
5
5
5
5
5
5
5
5
5
5
5
5
5
5
5
5
5
5
5
5
5
5
5
5
5
5
5
5
5
5
5
5
5
5
5
5
5
5
5
5
5
5
5
5
5
5
5
5
5
5
5
5
5
5
5
5
5
5
5
5
5
6
6
6
6
6
6
6
6
6
6
6
6
6
6
6
6
6
6
6
6
6
6
6
6
6
6
6
6
6
6
6
6
6
6
6
6
6
6
6
6
6
6
6
6
6
6
6
6
6
6
6
6
6
6
6
6
6
6
6
6
6
6
6
6
6
6
6
6
6
6
6
6
7
7
7
7
7
7
7
7
7
7
7
7
7
7
7
7
7
7
7
7
7
7
7
7
7
7
7
7
7
7
7
7
7
7
7
7
7
7
7
7
7
7
7
7
7
7
7
7
7
7
7
7
7
7
        </DataArray>
        <DataArray type="Float64" Name="displacement" NumberOfComponents="3" format="ascii">
1.125540887955134e-04 3.862954982658540e-05 1.752730015347481e-05
-2.046509842718036e-04 -3.992475385058425e-04 -1.417314794416313e-05
-7.316118257072457e-05 -3.604930983138743e-04 -2.141592943516457e-05
-8.212074402114133e-05 -2.587725209189373e-04 1.302864456675934e-05
1.245559958251707e-05 -4.876422637467570e-06 1.200091982340723e-04
-1.307162292856212e-04 -3.181177540877433e-04 -1.553973305590262e-05
-1.294469729252734e-04 -3.083053654249213e-04 5.489704324901368e-05
7.051782722089506e-06 -1.065797467046381e-04 2.250224842015314e-05
-8.394185944504695e-05 -1.797023861795921e-04 7.308269984918070e-05
-2.046509842718036e-04 -3.992475385058425e-04 -1.417314794416313e-05
0.000000000000000e+00 0.000000000000000e+00 0.000000000000000e+00
0.000000000000000e+00 0.000000000000000e+00 0.000000000000000e+00
-7.316118257072457e-05 -3.604930983138743e-04 -2.141592943516457e-05
-4.108212704506675e-05 -2.296264453882646e-04 2.652038788397704e-05
0.000000000000000e+00 0.000000000000000e+00 0.000000000000000e+00
1.166861010962750e-04 -5.671326264899967e-05 7.543984420266270e-06
-1.307162292856212e-04 -3.181177540877433e-04 -1.553973305590262e-05
-8.471138971072323e-05 -3.316352511900655e-04 1.345447915213072e-05
1.413157301830559e-04 5.076352152792753e-05 -2.562662264544713e-04
1.125540887955134e-04 3.862954982658540e-05 1.752730015347481e-05
-8.212074402114133e-05 -2.587725209189373e-04 1.302864456675934e-05
6.879457710251558e-05 -2.271269554032442e-04 -2.534050883724603e-04
1.371380544602507e-04 5.561432253736731e-05 -1.165247335030983e-04
7.051782722089506e-06 -1.065797467046381e-04 2.250224842015314e-05
-2.001460234990482e-06 -2.308799601022926e-04 -9.771948133519004e-05
1.224542919375793e-04 -7.836695283134394e-05 -2.574129187049579e-04
7.251606461200488e-05 -8.336474835757279e-05 -1.014838614459279e-04
-4.877690793381184e-06 2.154936269171959e-04 5.602377482816223e-06
0.000000000000000e+00 0.000000000000000e+00 0.000000000000000e+00
0.000000000000000e+00 0.000000000000000e+00 0.000000000000000e+00
-2.046509842718036e-04 -3.992475385058425e-04 -1.417314794416313e-05
-3.265848924699499e-05 7.593249357240595e-05 2.621346415310200e-05
0.000000000000000e+00 0.000000000000000e+00 0.000000000000000e+00
-4.108212704506675e-05 -2.296264453882646e-04 2.652038788397704e-05
-5.607379453209660e-06 8.878214753571534e-05 5.126403558008974e-05
-1.520284669676020e-05 -1.523813673720564e-05 5.261498147390853e-05
-1.950181804533102e-05 2.535113478114859e-04 2.289311201408850e-05
-4.877690793381184e-06 2.154936269171959e-04 5.602377482816223e-06
-2.046509842718036e-04 -3.992475385058425e-04 -1.417314794416313e-05
1.125540887955134e-04 3.862954982658540e-05 1.752730015347481e-05
1.205745652397283e-04 3.672754634199693e-04 -1.607441525663944e-06
-5.607379453209660e-06 8.878214753571534e-05 5.126403558008974e-05
1.245559958251707e-05 -4.876422637467570e-06 1.200091982340723e-04
1.769825115747192e-04 2.160326293257908e-04 -1.667729511822813e-05
2.797276303384555e-04 4.283969167220292e-04 9.702811252587651e-05
1.720816570742745e-04 2.651572663896860e-04 -1.468051670574511e-04
-1.950181804533102e-05 2.535113478114859e-04 2.289311201408850e-05
1.125540887955134e-04 3.862954982658540e-05 1.752730015347481e-05
1.413157301830559e-04 5.076352152792753e-05 -2.562662264544713e-04
1.022793425121682e-04 2.573231933678533e-04 -9.539415293069453e-05
1.769825115747192e-04 2.160326293257908e-04 -1.667729511822813e-05
1.371380544602507e-04 5.561432253736731e-05 -1.165247335030983e-04
1.309435634446743e-04 1.592799210085903e-04 -2.201754941530965e-04
1.370154444947369e-04 1.666083864024226e-04 -1.309203797212888e-04
-2.942553854234919e-05 2.089015579384013e-04 -1.080659338903445e-05
0.000000000000000e+00 0.000000000000000e+00 0.000000000000000e+00
0.000000000000000e+00 0.000000000000000e+00 0.000000000000000e+00
-4.877690793381184e-06 2.154936269171959e-04 5.602377482816223e-06
-4.884524746950891e-05 8.428898259504880e-05 -8.432102958977339e-06
0.000000000000000e+00 0.000000000000000e+00 0.000000000000000e+00
-3.265848924699499e-05 7.593249357240595e-05 2.621346415310200e-05
-1.377023129500721e-05 2.209514145394831e-04 -6.880334197489901e-06
-4.112245407383863e-05 9.428194230820530e-05 5.777423194075482e-06
1.771566926285217e-04 4.963946932535768e-04 6.205349859556009e-05
-2.942553854234919e-05 2.089015579384013e-04 -1.080659338903445e-05
-4.877690793381184e-06 2.154936269171959e-04 5.602377482816223e-06
-1.950181804533102e-05 2.535113478114859e-04 2.289311201408850e-05
3.248766593011432e-05 3.281615976808983e-04 6.684872555950960e-06
-1.377023129500721e-05 2.209514145394831e-04 -6.880334197489901e-06
1.205745652397283e-04 3.672754634199693e-04 -1.607441525663944e-06
1.174705536510778e-05 2.838419495426736e-04 3.801999569574832e-05
5.141412091091979e-05 2.859254713134529e-04 -1.857630958390644e-05
1.224417681179979e-03 1.175728527637979e-03 -1.820924279307690e-04
1.771566926285217e-04 4.963946932535768e-04 6.205349859556009e-05
-1.950181804533102e-05 2.535113478114859e-04 2.289311201408850e-05
1.720816570742745e-04 2.651572663896860e-04 -1.468051670574511e-04
5.469573938066130e-04 8.190903317347176e-04 7.974480464412181e-05
1.174705536510778e-05 2.838419495426736e-04 3.801999569574832e-05
1.022793425121682e-04 2.573231933678533e-04 -9.539415293069453e-05
5.323042241287546e-04 5.459329136053413e-04 -1.473999792498404e-04
1.244413554386536e-04 3.648045052841997e-04 1.555272081787962e-05
1.332267629550188e-15 -2.442490654175344e-15 1.776356839400250e-15
1.110223024625157e-15 -4.107825191113079e-15 1.776356839400250e-15
8.881784197001252e-16 -6.494804694057166e-15 1.776356839400250e-15
1.332267629550188e-15 -5.162537064506978e-15 1.776356839400250e-15
1.332267629550188e-15 -3.275157922644212e-15 1.776356839400250e-15
1.110223024625157e-15 -5.329070518200751e-15 1.776356839400250e-15
1.332267629550188e-15 -5.884182030513330e-15 1.776356839400250e-15
1.332267629550188e-15 -3.774758283725532e-15 1.776356839400250e-15
1.332267629550188e-15 -4.607425552194400e-15 1.776356839400250e-15
4.440892098500626e-16 -8.881784197001252e-16 -1.776356839400250e-15
3.330669073875470e-16 1.110223024625157e-16 0.000000000000000e+00
1.554312234475219e-15 -1.609823385706477e-15 1.776356839400250e-15
1.110223024625157e-15 -5.551115123125783e-16 0.000000000000000e+00
-1.110223024625157e-16 1.110223024625157e-16 -1.776356839400250e-15
5.551115123125783e-16 -4.996003610813204e-16 0.000000000000000e+00
8.881784197001252e-16 -9.436895709313831e-16 1.776356839400250e-15
9.992007221626409e-16 -3.330669073875470e-16 0.000000000000000e+00
4.440892098500626e-16 -3.885780586188048e-16 0.000000000000000e+00
1.554312234475219e-15 -1.609823385706477e-15 1.776356839400250e-15
4.440892098500626e-16 -2.831068712794149e-15 0.000000000000000e+00
4.440892098500626e-16 -5.773159728050814e-15 1.776356839400250e-15
1.110223024625157e-15 -4.107825191113079e-15 1.776356839400250e-15
8.881784197001252e-16 -2.164934898019055e-15 0.000000000000000e+00
4.440892098500626e-16 -4.440892098500626e-15 1.776356839400250e-15
1.110223024625157e-15 -4.773959005888173e-15 1.776356839400250e-15
1.776356839400250e-15 -2.720046410331634e-15 1.776356839400250e-15
1.332267629550188e-15 -3.552713678800501e-15 1.776356839400250e-15
1.110223024625157e-15 -5.551115123125783e-16 0.000000000000000e+00
1.554312234475219e-15 -1.609823385706477e-15 1.776356839400250e-15
1.110223024625157e-15 -4.107825191113079e-15 1.776356839400250e-15
1.332267629550188e-15 -2.442490654175344e-15 1.776356839400250e-15
8.881784197001252e-16 -9.436895709313831e-16 1.776356839400250e-15
1.776356839400250e-15 -2.720046410331634e-15 1.776356839400250e-15
1.332267629550188e-15 -3.275157922644212e-15 1.776356839400250e-15
1.332267629550188e-15 -1.221245327087672e-15 1.776356839400250e-15
1.110223024625157e-15 -1.942890293094024e-15 1.776356839400250e-15
3.330669073875470e-16 1.110223024625157e-16 0.000000000000000e+00
2.220446049250313e-16 -3.885780586188048e-16 0.000000000000000e+00
4.440892098500626e-16 -2.831068712794149e-15 0.000000000000000e+00
1.554312234475219e-15 -1.609823385706477e-15 1.776356839400250e-15
2.220446049250313e-16 -1.665334536937735e-16 0.000000000000000e+00
3.330669073875470e-16 -1.387778780781446e-15 0.000000000000000e+00
8.881784197001252e-16 -2.164934898019055e-15 0.000000000000000e+00
5.551115123125783e-16 -4.996003610813204e-16 0.000000000000000e+00
5.551115123125783e-16 -9.436895709313831e-16 0.000000000000000e+00
0.000000000000000e+00 0.000000000000000e+00 0.000000000000000e+00
0.000000000000000e+00 0.000000000000000e+00 0.000000000000000e+00
3.330669073875470e-16 1.110223024625157e-16 0.000000000000000e+00
4.440892098500626e-16 -8.881784197001252e-16 -1.776356839400250e-15
0.000000000000000e+00 0.000000000000000e+00 0.000000000000000e+00
1.110223024625157e-16 1.665334536937735e-16 0.000000000000000e+00
-1.110223024625157e-16 1.110223024625157e-16 -1.776356839400250e-15
-5.551115123125783e-17 -3.885780586188048e-16 -1.776356839400250e-15
0.000000000000000e+00 2.775557561562891e-16 -1.776356839400250e-15
0.000000000000000e+00 0.000000000000000e+00 0.000000000000000e+00
0.000000000000000e+00 0.000000000000000e+00 0.000000000000000e+00
2.220446049250313e-16 -3.885780586188048e-16 0.000000000000000e+00
3.330669073875470e-16 1.110223024625157e-16 0.000000000000000e+00
0.000000000000000e+00 0.000000000000000e+00 0.000000000000000e+00
1.665334536937735e-16 -5.551115123125783e-17 0.000000000000000e+00
2.220446049250313e-16 -1.665334536937735e-16 0.000000000000000e+00
1.110223024625157e-16 1.665334536937735e-16 0.000000000000000e+00
1.110223024625157e-16 5.551115123125783e-17 0.000000000000000e+00
1.110223024625157e-15 -4.107825191113079e-15 1.776356839400250e-15
4.440892098500626e-16 -5.773159728050814e-15 1.776356839400250e-15
-1.776356839400250e-15 -6.383782391594650e-15 0.000000000000000e+00
8.881784197001252e-16 -6.494804694057166e-15 1.776356839400250e-15
1.110223024625157e-15 -4.773959005888173e-15 1.776356839400250e-15
-2.220446049250313e-16 -6.383782391594650e-15 1.776356839400250e-15
4.440892098500626e-16 -6.716849298982197e-15 1.776356839400250e-15
1.110223024625157e-15 -5.329070518200751e-15 1.776356839400250e-15
4.440892098500626e-16 -5.939693181744587e-15 1.776356839400250e-15
0.000000000000000e+00 0.000000000000000e+00 0.000000000000000e+00
-2.976130930243792e-03 1.051919550809743e-03 -4.494973819536341e-03
-1.078127135225648e-03 -6.254642648948483e-04 -2.918975033619375e-03
2.482663789576067e-03 1.185913588386067e-02 -2.052962193497265e-03
-1.078127135225648e-03 -6.254642648948483e-04 -2.918975033619375e-03
-2.976130930243792e-03 1.051919550809743e-03 -4.494973819536341e-03
-2.976130930243792e-03 1.051919550809743e-03 -4.494973819536341e-03
0.000000000000000e+00 0.000000000000000e+00 0.000000000000000e+00
4.180199175273236e-03 3.832301964364959e-02 -9.085580354351919e-03
0.000000000000000e+00 0.000000000000000e+00 0.000000000000000e+00
4.180199175273236e-03 3.832301964364959e-02 -9.085580354351919e-03
0.000000000000000e+00 0.000000000000000e+00 0.000000000000000e+00
0.000000000000000e+00 0.000000000000000e+00 0.000000000000000e+00
-1.078127135225648e-03 -6.254642648948483e-04 -2.918975033619375e-03
0.000000000000000e+00 0.000000000000000e+00 0.000000000000000e+00
1.173456160405806e-02 1.953412235062701e-02 3.078338707840800e-03
1.885783233968552e-02 2.833239878090157e-02 1.166931969593676e-02
1.446834033257516e-02 1.509951742764352e-02 8.898810410828517e-03
3.739252880922361e-03 2.297065405641330e-02 -3.839142933291129e-03
4.180199175273236e-03 3.832301964364959e-02 -9.085580354351919e-03
1.416313094131239e-02 4.161952985648065e-02 -6.331062572328960e-04
2.482663789576067e-03 1.185913588386067e-02 -2.052962193497265e-03
3.178673438597346e-03 2.104915370210403e-03 -3.738409817195532e-04
-1.078127135225648e-03 -6.254642648948483e-04 -2.918975033619375e-03
1.416313094131239e-02 4.161952985648065e-02 -6.331062572328960e-04
2.279168007078547e-02 4.394492579857033e-02 1.201563182683785e-02
1.173456160405806e-02 1.953412235062701e-02 3.078338707840800e-03
3.178673438597346e-03 2.104915370210403e-03 -3.738409817195532e-04
2.482663789576067e-03 1.185913588386067e-02 -2.052962193497265e-03
1.173456160405806e-02 1.953412235062701e-02 3.078338707840800e-03
1.173456160405806e-02 1.953412235062701e-02 3.078338707840800e-03
3.739252880922361e-03 2.297065405641330e-02 -3.839142933291129e-03
1.416313094131239e-02 4.161952985648065e-02 -6.331062572328960e-04
2.482663789576067e-03 1.185913588386067e-02 -2.052962193497265e-03
-2.976130930243792e-03 1.051919550809743e-03 -4.494973819536341e-03
3.739252880922361e-03 2.297065405641330e-02 -3.839142933291129e-03
1.173456160405806e-02 1.953412235062701e-02 3.078338707840800e-03
1.019366035275460e-02 3.944246509272029e-03 6.904651473192303e-03
3.178673438597346e-03 2.104915370210403e-03 -3.738409817195532e-04
-2.976130930243792e-03 1.051919550809743e-03 -4.494973819536341e-03
4.180199175273236e-03 3.832301964364959e-02 -9.085580354351919e-03
3.739252880922361e-03 2.297065405641330e-02 -3.839142933291129e-03
1.446834033257516e-02 1.509951742764352e-02 8.898810410828517e-03
1.019366035275460e-02 3.944246509272029e-03 6.904651473192303e-03
1.173456160405806e-02 1.953412235062701e-02 3.078338707840800e-03
1.173456160405806e-02 1.953412235062701e-02 3.078338707840800e-03
2.279168007078547e-02 4.394492579857033e-02 1.201563182683785e-02
1.885783233968552e-02 2.833239878090157e-02 1.166931969593676e-02
2.482663789576067e-03 1.185913588386067e-02 -2.052962193497265e-03
3.739252880922361e-03 2.297065405641330e-02 -3.839142933291129e-03
1.173456160405806e-02 1.953412235062701e-02 3.078338707840800e-03
-2.976130930243792e-03 1.051919550809743e-03 -4.494973819536341e-03
0.000000000000000e+00 0.000000000000000e+00 0.000000000000000e+00
0.000000000000000e+00 0.000000000000000e+00 0.000000000000000e+00
        </DataArray>
        <DataArray type="Float64" Name="normal_averaged" NumberOfComponents="3" format="ascii">
0.000000000000000e+00 0.000000000000000e+00 0.000000000000000e+00
0.000000000000000e+00 0.000000000000000e+00 0.000000000000000e+00
0.000000000000000e+00 0.000000000000000e+00 0.000000000000000e+00
0.000000000000000e+00 0.000000000000000e+00 0.000000000000000e+00
0.000000000000000e+00 0.000000000000000e+00 0.000000000000000e+00
0.000000000000000e+00 0.000000000000000e+00 0.000000000000000e+00
0.000000000000000e+00 0.000000000000000e+00 0.000000000000000e+00
0.000000000000000e+00 0.000000000000000e+00 0.000000000000000e+00
0.000000000000000e+00 0.000000000000000e+00 0.000000000000000e+00
0.000000000000000e+00 0.000000000000000e+00 0.000000000000000e+00
0.000000000000000e+00 0.000000000000000e+00 0.000000000000000e+00
0.000000000000000e+00 0.000000000000000e+00 0.000000000000000e+00
0.000000000000000e+00 0.000000000000000e+00 0.000000000000000e+00
0.000000000000000e+00 0.000000000000000e+00 0.000000000000000e+00