<?xml version="1.0" ?> 
<!-- 
# vtk DataFile Version 3.0
-->
<VTKFile type="UnstructuredGrid" version="0.1" compressor="vtkZLibDataCompressor" byte_order="LittleEndian">
  <UnstructuredGrid>
    <FieldData>
      <DataArray type="Float64" Name="TIME" NumberOfTuples="1" format="ascii">
3.000000000000000e+00 
      </DataArray>
    </FieldData>

    <Piece NumberOfPoints="56" NumberOfCells="0" >
      <Points>
        <DataArray type="Float64" NumberOfComponents="3" format="ascii">
1.000000000000000e-01 3.000000000000000e-01 1.750000000000000e+01
4.285291040100552e-01 3.000000000000000e-01 1.767208667352902e+01
1.053627568438915e+00 3.000000000000000e-01 1.799951920251567e+01
1.150000000000000e+00 3.000000000000000e-01 1.805000000000000e+01
8.155693453509689e-01 3.000000000000000e-01 1.787482203804104e+01
1.053627568438921e+00 3.000000000000000e-01 1.799951920251567e+01
4.285291040100551e-01 3.000000000000000e-01 1.767208667352902e+01
6.456898118068788e-01 3.000000000000000e-01 1.778583752047028e+01
6.456898118068778e-01 3.000000000000000e-01 1.778583752047028e+01
8.155693453509669e-01 2.999999999999999e-01 1.787482203804103e+01
1.150000000000000e+00 3.000000000000000e-01 1.805000000000000e+01
1.204849796232627e+00 2.999999999999999e-01 1.807873084564564e+01
1.204849796232627e+00 3.000000000000000e-01 1.807873084564563e+01
1.312800678365585e+00 3.000000000000000e-01 1.813527654581049e+01
1.995978191111751e+00 2.999999999999999e-01 1.849313143343955e+01
2.000000000000000e+00 2.999999999999999e-01 1.849523809523815e+01
1.312800678365585e+00 3.000000000000000e-01 1.813527654581049e+01
1.590794601595392e+00 3.000000000000000e-01 1.828089241035947e+01
1.590794601595393e+00 3.000000000000000e-01 1.828089241035947e+01
1.995978191111751e+00 3.000000000000000e-01 1.849313143343955e+01
7.282912294134959e-01 6.852366693390888e-01 2.068414601579194e+01
7.071067811870000e-01 7.071067811870000e-01 2.071460183660000e+01
8.076108102509371e-01 5.890449378240568e-01 2.055929315811433e+01
7.282912294134961e-01 6.852366693390888e-01 2.068414601579194e+01
9.973931080192994e-01 7.070272402877290e-02 1.999999998885323e+01
9.099650212282826e-01 4.123008091368161e-01 2.035460298935891e+01
9.099650212282833e-01 4.123008091368143e-01 2.035460298935891e+01
8.076108102509362e-01 5.890449378240580e-01 2.055929315811433e+01
2.527815540384706e-01 9.667300861487246e-01 2.124416147965651e+01
0.000000000000000e+00 1.000000000000000e+00 2.150000000000000e+01
5.837516764426333e-01 8.114136823547502e-01 2.087643344895821e+01
4.573945845398238e-01 8.882386764163268e-01 2.102452754077683e+01
7.071067811870000e-01 7.071067811870000e-01 2.071460183660000e+01
5.837516764426296e-01 8.114136823547528e-01 2.087643344895821e+01
4.573945845398235e-01 8.882386764163269e-01 2.102452754077683e+01
2.527815540384732e-01 9.667300861487240e-01 2.124416147965651e+01
6.456898117728429e-01 3.000000000000000e-01 2.278583752045245e+01
8.155693453656024e-01 3.000000000000000e-01 2.287482203804870e+01
4.285291039950258e-01 3.000000000000000e-01 2.267208667352115e+01
6.456898117728416e-01 2.999999999999999e-01 2.278583752045244e+01
1.000000000000000e-01 3.000000000000000e-01 2.250000000000000e+01
4.285291039950233e-01 3.000000000000000e-01 2.267208667352115e+01
1.053627568438918e+00 2.999999999999999e-01 2.299951920251566e+01
1.150000000000000e+00 3.000000000000000e-01 2.305000000000000e+01
8.155693453656018e-01 2.999999999999999e-01 2.287482203804870e+01
1.053627568438926e+00 3.000000000000000e-01 2.299951920251567e+01
1.312800678387913e+00 3.000000000000000e-01 2.313527654582218e+01
1.590794601608112e+00 3.000000000000000e-01 2.328089241036613e+01
1.590794601608110e+00 3.000000000000000e-01 2.328089241036613e+01
1.995978191109079e+00 3.000000000000000e-01 2.349313143343815e+01
1.995978191109072e+00 3.000000000000000e-01 2.349313143343815e+01
2.000000000000000e+00 3.000000000000000e-01 2.349523809523815e+01
1.150000000000000e+00 3.000000000000000e-01 2.305000000000000e+01
1.204849796220207e+00 3.000000000000000e-01 2.307873084563913e+01
1.204849796220205e+00 3.000000000000000e-01 2.307873084563913e+01
1.312800678387917e+00 3.000000000000000e-01 2.313527654582218e+01
        </DataArray>
      </Points>

      <Cells>
        <DataArray type="Int32" Name="connectivity" format="ascii">

        </DataArray>
        <DataArray type="Int32" Name="offsets" format="ascii">

        </DataArray>
        <DataArray type="UInt8" Name="types" format="ascii">

        </DataArray>
      </Cells>

  <PointData>
        <DataArray type="Float64" Name="displacement" NumberOfComponents="3" format="ascii">
0.000000000000000e+00 0.000000000000000e+00 0.000000000000000e+00
-6.714360782653694e-03 1.881400754435242e-02 2.165938038032778e-03
-3.172221921401341e-02 1.349029813808172e-01 1.280239799773497e-02
-3.722034723882750e-02 1.609867689574131e-01 1.396343284000423e-02
-2.011276545082097e-02 7.934689581025134e-02 8.863337669783533e-03
-3.172221921401364e-02 1.349029813808187e-01 1.280239799772431e-02
-6.714360782653694e-03 1.881400754435236e-02 2.165938038032778e-03
-1.344137420665492e-02 4.799216076758978e-02 5.713073607367392e-03
-1.344137420665470e-02 4.799216076758955e-02 5.713073607367392e-03
-2.011276545082108e-02 7.934689581025101e-02 8.863337669787086e-03
-3.722034723882750e-02 1.609867689574131e-01 1.396343284000423e-02
-4.039782354958121e-02 1.764800604938274e-01 1.445734793530562e-02
-4.039782354958166e-02 1.764800604938273e-01 1.445734793530917e-02
-4.627606599184508e-02 2.077079801521082e-01 1.502361041772460e-02
-9.400358029732958e-02 4.641525764403326e-01 2.672406719060660e-03
-9.444445972380322e-02 4.661370046295326e-01 2.501609668993154e-03
-4.627606599184531e-02 2.077079801521080e-01 1.502361041772460e-02
-6.140476085686641e-02 2.963591889368231e-01 1.364705974499714e-02
-6.140476085686686e-02 2.963591889368234e-01 1.364705974499714e-02
-9.400358029732958e-02 4.641525764403328e-01 2.672406719060660e-03
2.233336320150781e-02 1.300706964036534e-01 -5.443807267816680e-03
1.680703679435369e-02 1.208543314139009e-01 -5.684291251082385e-03
4.991374445077013e-02 1.683292407642668e-01 -4.134663188349208e-03
2.233336320150781e-02 1.300706964036534e-01 -5.443807267813128e-03
3.432427135223431e-01 3.504162936087516e-01 3.649211083939008e-02
1.187070879297054e-01 2.328246379857599e-01 1.656735511652130e-03
1.187070879297065e-01 2.328246379857605e-01 1.656735511655683e-03
4.991374445076968e-02 1.683292407642664e-01 -4.134663188345655e-03
-8.138394719045094e-03 1.342645339049930e-02 -1.508846041637923e-04
0.000000000000000e+00 0.000000000000000e+00 0.000000000000000e+00
-3.454123765458172e-03 7.684358226355170e-02 -5.474278072249206e-03
-1.043793048557934e-02 4.513604819326744e-02 -3.534508843173967e-03
1.680703679435369e-02 1.208543314139009e-01 -5.684291251082385e-03
-3.454123765458506e-03 7.684358226355059e-02 -5.474278072249206e-03
-1.043793048557934e-02 4.513604819326744e-02 -3.534508843173967e-03
-8.138394719045178e-03 1.342645339049942e-02 -1.508846041637923e-04
-5.261676566513240e-02 1.253797069511389e-01 1.934782672634228e-02
-8.226553605361364e-02 2.032508218461733e-01 3.020227011303334e-02
-2.292297847896191e-02 4.868380027142793e-02 7.076972565062789e-03
-5.261676566513218e-02 1.253797069511383e-01 1.934782672634938e-02
0.000000000000000e+00 0.000000000000000e+00 0.000000000000000e+00
-2.292297847896174e-02 4.868380027142727e-02 7.076972565062789e-03
-1.311691986615817e-01 3.299674808873219e-01 4.345089928624546e-02
-1.528385714824123e-01 3.847467021992717e-01 4.714136226444410e-02
-8.226553605361364e-02 2.032508218461732e-01 3.020227011302623e-02
-1.311691986615835e-01 3.299674808873258e-01 4.345089928624546e-02
-1.919635741483681e-01 4.829447342297773e-01 5.019096852826976e-02
-2.674169632601573e-01 6.711323714671120e-01 4.601042560845059e-02
-2.674169632601562e-01 6.711323714671107e-01 4.601042560844704e-02
-3.984827790922145e-01 9.859075103294672e-01 1.890769606296061e-02
-3.984827790922116e-01 9.859075103294619e-01 1.890769606296061e-02
-3.999166601554458e-01 9.892444406564480e-01 1.851472397876464e-02
-1.528385714824123e-01 3.847467021992717e-01 4.714136226444410e-02
-1.656178609702319e-01 4.167830679970950e-01 4.862437651775409e-02
-1.656178609702312e-01 4.167830679970937e-01 4.862437651775409e-02
-1.919635741483692e-01 4.829447342297794e-01 5.019096852826621e-02
        </DataArray>
        <DataArray type="Float64" Name="projection_direction" NumberOfComponents="3" format="ascii">
-9.507284229813007e-04 2.277569962200410e-03 3.707147634912644e-04
1.312308919780736e-03 -7.084182901503755e-03 -1.097950091988764e-03
-4.350081050732424e-04 2.421063415968261e-03 -2.958237654304696e-04
-9.091787164683396e-06 -1.730375808515983e-03 -6.656797618731503e-05
-4.304722733872168e-05 1.026276413840455e-03 9.017732178691062e-04
-4.350081050732424e-04 2.421063415967983e-03 -2.958237654233642e-04
1.312308919780791e-03 -7.084182901503699e-03 -1.097950091988764e-03
-1.463617924403193e-04 2.874904270032674e-04 -3.454808096492457e-05
-1.463617924407634e-04 2.874904270031009e-04 -3.454808096847728e-05
-4.304722733849964e-05 1.026276413840732e-03 9.017732178726590e-04
-9.091787164683396e-06 -1.730375808515983e-03 -6.656797618731503e-05
2.815653983898603e-04 -4.741001726455918e-03 2.307925724664983e-04
2.815653983898603e-04 -4.741001726455973e-03 2.307925724700510e-04
6.982626093403610e-04 -1.471396205895648e-03 -1.430194706237842e-04
2.357865200371068e-03 -6.392207902351843e-03 9.884687631007694e-04
2.534436991957545e-03 -6.901450604857473e-03 1.053822461212661e-03
6.982626093396949e-04 -1.471396205896203e-03 -1.430194706273369e-04
3.310418351487598e-04 -2.286723737995211e-03 8.080790108770941e-04
3.310418351492039e-04 -2.286723737995544e-03 8.080790108770941e-04
2.357865200370846e-03 -6.392207902351954e-03 9.884687630972167e-04
-2.802326875472883e-05 6.599351843845636e-04 4.079334838387183e-04
5.426336986942282e-04 5.896211821215802e-04 5.931962370198107e-04
-2.896525033158515e-03 -2.083880059700727e-03 -1.292383283377774e-03
-2.802326875483985e-05 6.599351843848966e-04 4.079334838316129e-04
-9.317490644904503e-03 -4.278264823756206e-03 -3.808858653894021e-03
-4.582162394839440e-04 6.856140887123718e-04 -3.898781843929555e-04
-4.582162394846101e-04 6.856140887117057e-04 -3.898781843822974e-04
-2.896525033158515e-03 -2.083880059700616e-03 -1.292383283384879e-03
-4.990380603074329e-04 4.981133047265995e-05 2.235612347512017e-04
1.471019436802601e-18 0.000000000000000e+00 -1.421085471520200e-14
1.757668463584494e-03 7.478090776821267e-04 4.513811484159191e-04
-9.727595696374380e-04 -3.044181982925220e-04 -3.274439663201179e-04
5.426336986942282e-04 5.896211821215802e-04 5.931962370198107e-04
1.757668463584605e-03 7.478090776825708e-04 4.513811484088137e-04
-9.727595696376046e-04 -3.044181982925220e-04 -3.274439663307760e-04
-4.990380603075162e-04 4.981133047254893e-05 2.235612347547544e-04
2.686040206140161e-04 -5.494569603208266e-04 -2.172937769628902e-04
-8.901062368696921e-04 -1.183657438405872e-03 -1.697008870387151e-04
1.971787104237954e-05 2.276633105441406e-03 -5.734849709071455e-05
2.686040206143492e-04 -5.494569603207711e-04 -2.172937769628902e-04
-2.629475609695897e-05 -2.829252184202713e-03 -6.066672984239574e-04
1.971787104193545e-05 2.276633105442072e-03 -5.734849707295098e-05
6.519036552959934e-04 -4.179812507200120e-04 2.014189763634988e-04
-1.061234550261414e-04 2.872127161297477e-04 -2.786930792240128e-04
-8.901062368698032e-04 -1.183657438405872e-03 -1.697008870351624e-04
6.519036552958823e-04 -4.179812507206782e-04 2.014189763492880e-04
6.157029120621438e-04 8.160552733262882e-04 2.056538557262400e-04
-4.694822834732104e-04 -1.057759117057855e-03 5.348199978243429e-04
-4.694822834740986e-04 -1.057759117057189e-03 5.348199978314483e-04
5.513853870451335e-04 -5.096090903202732e-04 6.084852045873390e-04
5.513853870457996e-04 -5.096090903229378e-04 6.084852045766809e-04
7.068961431080378e-04 -7.684141437283021e-04 6.405955114132666e-04
-1.061234550261414e-04 2.872127161297477e-04 -2.786930792240128e-04
-8.026556030549248e-04 1.135312435089908e-03 -3.768573939311182e-04
-8.026556030551468e-04 1.135312435090574e-03 -3.768573939240127e-04
6.157029120612556e-04 8.160552733266213e-04 2.056538557368981e-04
        </DataArray>
        <DataArray type="Int32" Name="uid_0_pair_beam_id" format="ascii">
281
281
281
281
281
281
281
281
281
281
282
282
282
282
282
282
282
282
282
282
283
283
283
283
283
283
283
283
284
284
284
284
284
284
284
284
285
285
285
285
285
285
285
285
285
285
286
286
286
286
286
286
286
286
286
286
        </DataArray>
        <DataArray type="Int32" Name="uid_1_pair_solid_id" format="ascii">
133
133
146
146
150
150
106
106
105
105
146
146
149
149
127
127
99
99
103
103
173
173
191
191
206
206
166
166
159
159
177
177
173
173
201
201
213
213
214
214
241
241
254
254
258
258
207
207
211
211
235
235
254
254
257
257
        </DataArray>
      </PointData>

    </Piece>
  </UnstructuredGrid>
</VTKFile>
