<?xml version="1.0" ?> 
<!-- 
# vtk DataFile Version 3.0
-->
<VTKFile type="UnstructuredGrid" version="0.1" compressor="vtkZLibDataCompressor" byte_order="LittleEndian">
  <UnstructuredGrid>
    <FieldData>
      <DataArray type="Float64" Name="TIME" NumberOfTuples="1" format="ascii">
1.000000000000000e+00 
      </DataArray>
    </FieldData>

    <Piece NumberOfPoints="168" NumberOfCells="0" >
      <Points>
        <DataArray type="Float64" NumberOfComponents="3" format="ascii">
1.110928649961031e-01 2.999999999999999e-01 1.750581054833129e+01
1.556512883556357e-01 3.000000000000000e-01 1.752915067485292e+01
2.250678783032799e-01 3.000000000000000e-01 1.756551174577786e+01
3.034612257068003e-01 3.000000000000000e-01 1.760657492775112e+01
3.728778156544343e-01 3.000000000000000e-01 1.764293599867607e+01
4.174362390139556e-01 3.000000000000000e-01 1.766627612519774e+01
1.056881606999286e+00 3.000000000000000e-01 1.800122369890443e+01
1.069952606047073e+00 2.999999999999999e-01 1.800807041269136e+01
1.090315628629474e+00 3.000000000000000e-01 1.801873675785356e+01
1.113311939809438e+00 3.000000000000000e-01 1.803078244466210e+01
1.133674962391840e+00 3.000000000000000e-01 1.804144878982430e+01
1.146745961439628e+00 3.000000000000000e-01 1.804829550361124e+01
8.236074390775003e-01 3.000000000000000e-01 1.787903246808827e+01
8.558952910793249e-01 3.000000000000000e-01 1.789594515247018e+01
9.061958271781099e-01 3.000000000000000e-01 1.792229305233145e+01
9.630010866117689e-01 3.000000000000000e-01 1.795204818822527e+01
1.013301622710558e+00 3.000000000000000e-01 1.797839608808654e+01
1.045589474712388e+00 3.000000000000000e-01 1.799530877246844e+01
4.358615880568089e-01 3.000000000000000e-01 1.767592749850590e+01
4.653151087250092e-01 3.000000000000000e-01 1.769135553314163e+01
5.112001022366039e-01 3.000000000000000e-01 1.771539052974295e+01
5.630188135803326e-01 3.000000000000000e-01 1.774253366425635e+01
6.089038070919262e-01 3.000000000000000e-01 1.776656866085767e+01
6.383573277601254e-01 3.000000000000000e-01 1.778199669549340e+01
6.514258355204646e-01 3.000000000000000e-01 1.778884210432025e+01
6.744666075049905e-01 3.000000000000000e-01 1.780091108012168e+01
7.103613205656795e-01 3.000000000000000e-01 1.781971307267729e+01
7.508978365921631e-01 3.000000000000000e-01 1.784094648583403e+01
7.867925496528527e-01 3.000000000000000e-01 1.785974847838963e+01
8.098333216373796e-01 2.999999999999999e-01 1.787181745419106e+01
1.151852016692724e+00 2.999999999999999e-01 1.805097010398190e+01
1.159291298058927e+00 3.000000000000000e-01 1.805486687041182e+01
1.170880791249384e+00 2.999999999999999e-01 1.806093755732109e+01
1.183969004983243e+00 3.000000000000000e-01 1.806779328832454e+01
1.195558498173701e+00 3.000000000000000e-01 1.807386397523382e+01
1.202997779539904e+00 3.000000000000000e-01 1.807776074166373e+01
1.208494783988945e+00 3.000000000000000e-01 1.808064012494656e+01
1.223136169027294e+00 3.000000000000000e-01 1.808830942187140e+01
1.245945661483343e+00 3.000000000000000e-01 1.810025725125314e+01
1.271704813114872e+00 3.000000000000000e-01 1.811375014020298e+01
1.294514305570920e+00 3.000000000000000e-01 1.812569796958471e+01
1.309155690609267e+00 3.000000000000000e-01 1.813336726650956e+01
1.996113988465754e+00 3.000000000000000e-01 1.849320256538688e+01
1.996659466662134e+00 3.000000000000000e-01 1.849348829206118e+01
1.997509255174128e+00 3.000000000000000e-01 1.849393341937699e+01
1.998468935937624e+00 3.000000000000000e-01 1.849443610930072e+01
1.999318724449618e+00 3.000000000000000e-01 1.849488123661653e+01
1.999864202645997e+00 3.000000000000000e-01 1.849516696329082e+01
1.322187210707726e+00 3.000000000000000e-01 1.814019330084685e+01
1.359891544270426e+00 3.000000000000000e-01 1.815994318985588e+01
1.418630298131908e+00 2.999999999999999e-01 1.819071110854523e+01
1.484964981829079e+00 3.000000000000000e-01 1.822545784762471e+01
1.543703735690557e+00 3.000000000000000e-01 1.825622576631407e+01
1.581408069253253e+00 3.000000000000000e-01 1.827597565532311e+01
1.604475723913868e+00 3.000000000000000e-01 1.828805871252629e+01
1.659430800038415e+00 3.000000000000000e-01 1.831684470478202e+01
1.745044107181236e+00 3.000000000000000e-01 1.836168977042829e+01
1.841728685525896e+00 3.000000000000000e-01 1.841233407337075e+01
1.927341992668722e+00 3.000000000000000e-01 1.845717913901701e+01
1.982297068793275e+00 3.000000000000000e-01 1.848596513127273e+01
7.275874203475653e-01 6.859859203550280e-01 2.068517439284198e+01
7.247521970757825e-01 6.889880282833269e-01 2.068930521383530e+01
7.203093922049884e-01 6.936408193855819e-01 2.069574046515747e+01
7.152542760527555e-01 6.988596899618666e-01 2.070300780968607e+01
7.107446751006581e-01 7.034491521847014e-01 2.070944289066832e+01
7.078335139314260e-01 7.063792639441053e-01 2.071357351800874e+01
8.051344864062868e-01 5.924528854948170e-01 2.056350920998211e+01
7.950429140086187e-01 6.060350932899198e-01 2.058044425117396e+01
7.788637382033068e-01 6.268447800368557e-01 2.060682621530682e+01
7.599296529396442e-01 6.498146584201980e-01 2.063661859596223e+01
7.425846333596249e-01 6.696655617636275e-01 2.066299828701126e+01
7.311676579850401e-01 6.821577655592278e-01 2.067993074402145e+01
9.964422083599686e-01 8.262713075546312e-02 2.001197115011487e+01
9.911596711457210e-01 1.303805179141828e-01 2.006005976246379e+01
9.783411120676044e-01 2.041216084691319e-01 2.013498191745851e+01
9.573208221840576e-01 2.860155654339628e-01 2.021959913512233e+01
9.330896710673362e-01 3.568802465635577e-01 2.029453013091727e+01
9.148325966205227e-01 4.013635544047023e-01 2.034262879403214e+01
9.070973783333833e-01 4.185878706146943e-01 2.036151476346000e+01
8.951538093107047e-01 4.436421858100994e-01 2.038927823893285e+01
8.752073616043790e-01 4.819995225137057e-01 2.043252977846891e+01
8.507532439181951e-01 5.242475493044920e-01 2.048137319118123e+01
8.274259078302935e-01 5.606285856118349e-01 2.052462197989555e+01
8.116387367549409e-01 5.834361208481107e-01 2.055238232806492e+01
2.444248131954816e-01 9.689055715931895e-01 2.125280115852591e+01
2.106826146971889e-01 9.769234319013161e-01 2.128750489739543e+01
1.576311936955080e-01 9.870851920359309e-01 2.134156679999463e+01
9.716911780767161e-02 9.950834909998918e-01 2.140261558280393e+01
4.330369828648812e-02 9.990201373063295e-01 2.145666905688858e+01
8.636096158343872e-03 9.999609049726239e-01 2.149136321370385e+01
5.796773631993898e-01 8.143053179929870e-01 2.088143355289678e+01
5.631666742179472e-01 8.257149188351954e-01 2.090151852685891e+01
5.369969542904285e-01 8.428277362301818e-01 2.093280929766036e+01
5.068178957391948e-01 8.611711822278739e-01 2.096814754506747e+01
4.795721537676573e-01 8.765313903015415e-01 2.099943998801517e+01
4.618381766825168e-01 8.859485169699015e-01 2.101952686297611e+01
7.032325882786338e-01 7.109588405831683e-01 2.072006538381141e+01
6.874533216785288e-01 7.262046387190589e-01 2.074201224499035e+01
6.621961893408240e-01 7.492228482251930e-01 2.077620455240032e+01
6.327249561949778e-01 7.741275279645813e-01 2.081482088338034e+01
6.058296766312506e-01 7.951982317333764e-01 2.084901716239387e+01
5.881880634139566e-01 8.082299854511132e-01 2.087096853873625e+01
4.507841808802269e-01 8.915949531381611e-01 2.103194350554467e+01
4.239902197625687e-01 9.045922102244642e-01 2.106173254851522e+01
3.815248121325067e-01 9.232761336832360e-01 2.110814060675241e+01
3.326094437785773e-01 9.420432896251481e-01 2.116054998646939e+01
2.885480536170670e-01 9.565536446051716e-01 2.120695741053061e+01
2.599396813028323e-01 9.648061321038991e-01 2.123674573253087e+01
6.514258354880734e-01 3.000000000000000e-01 2.278884210430328e+01
6.744666074792003e-01 3.000000000000000e-01 2.280091108010817e+01
7.103613205501732e-01 3.000000000000000e-01 2.281971307266916e+01
7.508978365882703e-01 3.000000000000000e-01 2.284094648583199e+01
7.867925496592438e-01 3.000000000000000e-01 2.285974847839298e+01
8.098333216503718e-01 3.000000000000000e-01 2.287181745419786e+01
4.358615880411376e-01 3.000000000000000e-01 2.267592749849769e+01
4.653151087067601e-01 3.000000000000000e-01 2.269135553313207e+01
5.112001022143385e-01 2.999999999999999e-01 2.271539052973128e+01
5.630188135535317e-01 2.999999999999999e-01 2.274253366424231e+01
6.089038070611090e-01 3.000000000000000e-01 2.276656866084153e+01
6.383573277267303e-01 3.000000000000000e-01 2.278199669547591e+01
1.110928649955955e-01 3.000000000000000e-01 2.250581054833102e+01
1.556512883530894e-01 3.000000000000000e-01 2.252915067485159e+01
2.250678782975574e-01 2.999999999999999e-01 2.256551174577486e+01
3.034612256974909e-01 3.000000000000000e-01 2.260657492774624e+01
3.728778156419488e-01 3.000000000000000e-01 2.264293599866953e+01
4.174362389994312e-01 3.000000000000000e-01 2.266627612519013e+01
1.056881606999290e+00 3.000000000000000e-01 2.300122369890443e+01
1.069952606047076e+00 3.000000000000000e-01 2.300807041269136e+01
1.090315628629476e+00 3.000000000000000e-01 2.301873675785357e+01
1.113311939809440e+00 2.999999999999999e-01 2.303078244466211e+01
1.133674962391841e+00 2.999999999999999e-01 2.304144878982430e+01
1.146745961439628e+00 3.000000000000000e-01 2.304829550361124e+01
8.236074390916391e-01 3.000000000000000e-01 2.287903246809567e+01
8.558952910914798e-01 3.000000000000000e-01 2.289594515247655e+01
9.061958271871740e-01 2.999999999999999e-01 2.292229305233620e+01
9.630010866173423e-01 3.000000000000000e-01 2.295204818822819e+01
1.013301622713041e+00 3.000000000000000e-01 2.297839608808784e+01
1.045589474712887e+00 3.000000000000000e-01 2.299530877246870e+01
1.322187210729730e+00 3.000000000000000e-01 2.314019330085837e+01
1.359891544291127e+00 3.000000000000000e-01 2.315994318986672e+01
1.418630298150579e+00 3.000000000000000e-01 2.319071110855500e+01
1.484964981845457e+00 3.000000000000000e-01 2.322545784763328e+01
1.543703735704904e+00 3.000000000000000e-01 2.325622576632158e+01
1.581408069266297e+00 3.000000000000000e-01 2.327597565532994e+01
1.604475723926065e+00 3.000000000000000e-01 2.328805871253268e+01
1.659430800048525e+00 3.000000000000000e-01 2.331684470478732e+01
1.745044107188094e+00 2.999999999999999e-01 2.336168977043188e+01
1.841728685529082e+00 3.000000000000000e-01 2.341233407337242e+01
1.927341992668656e+00 3.000000000000000e-01 2.345717913901698e+01
1.982297068791122e+00 3.000000000000000e-01 2.348596513127160e+01
1.996113988463165e+00 3.000000000000000e-01 2.349320256538553e+01
1.996659466659908e+00 3.000000000000000e-01 2.349348829206001e+01
1.997509255172468e+00 3.000000000000000e-01 2.349393341937612e+01
1.998468935936604e+00 3.000000000000000e-01 2.349443610930019e+01
1.999318724449163e+00 2.999999999999999e-01 2.349488123661629e+01
1.999864202645907e+00 3.000000000000000e-01 2.349516696329078e+01
1.151852016692304e+00 3.000000000000000e-01 2.305097010398169e+01
1.159291298056823e+00 3.000000000000000e-01 2.305486687041071e+01
1.170880791244657e+00 3.000000000000000e-01 2.306093755731862e+01
1.183969004975552e+00 3.000000000000000e-01 2.306779328832051e+01
1.195558498163385e+00 3.000000000000000e-01 2.307386397522842e+01
1.202997779527903e+00 3.000000000000000e-01 2.307776074165745e+01
1.208494783977698e+00 3.000000000000000e-01 2.308064012494067e+01
1.223136169020759e+00 3.000000000000000e-01 2.308830942186798e+01
1.245945661484151e+00 3.000000000000000e-01 2.310025725125356e+01
1.271704813123974e+00 3.000000000000000e-01 2.311375014020775e+01
1.294514305587364e+00 3.000000000000000e-01 2.312569796959333e+01
1.309155690630425e+00 3.000000000000000e-01 2.313336726652064e+01
        </DataArray>
      </Points>

      <Cells>
        <DataArray type="Int32" Name="connectivity" format="ascii">

        </DataArray>
        <DataArray type="Int32" Name="offsets" format="ascii">

        </DataArray>
        <DataArray type="UInt8" Name="types" format="ascii">

        </DataArray>
      </Cells>

  <PointData>
        <DataArray type="Float64" Name="displacement" NumberOfComponents="3" format="ascii">
-1.387778780781446e-17 0.000000000000000e+00 0.000000000000000e+00
-5.551115123125783e-17 -5.551115123125783e-17 0.000000000000000e+00
-8.326672684688674e-17 -5.551115123125783e-17 0.000000000000000e+00
-5.551115123125783e-17 -5.551115123125783e-17 3.552713678800501e-15
-5.551115123125783e-17 0.000000000000000e+00 0.000000000000000e+00
-5.551115123125783e-17 0.000000000000000e+00 0.000000000000000e+00
6.661338147750939e-16 1.110223024625157e-16 0.000000000000000e+00
6.661338147750939e-16 1.110223024625157e-16 -3.552713678800501e-15
4.440892098500626e-16 5.551115123125783e-17 -3.552713678800501e-15
6.661338147750939e-16 5.551115123125783e-17 -3.552713678800501e-15
4.440892098500626e-16 5.551115123125783e-17 -3.552713678800501e-15
6.661338147750939e-16 5.551115123125783e-17 -3.552713678800501e-15
2.220446049250313e-16 5.551115123125783e-17 0.000000000000000e+00
3.330669073875470e-16 1.110223024625157e-16 0.000000000000000e+00
5.551115123125783e-16 1.665334536937735e-16 -3.552713678800501e-15
2.220446049250313e-16 1.665334536937735e-16 -3.552713678800501e-15
4.440892098500626e-16 1.110223024625157e-16 -3.552713678800501e-15
4.440892098500626e-16 1.110223024625157e-16 -3.552713678800501e-15
-1.110223024625157e-16 0.000000000000000e+00 0.000000000000000e+00
5.551115123125783e-17 0.000000000000000e+00 0.000000000000000e+00
-1.110223024625157e-16 0.000000000000000e+00 0.000000000000000e+00
1.110223024625157e-16 0.000000000000000e+00 0.000000000000000e+00
1.110223024625157e-16 5.551115123125783e-17 0.000000000000000e+00
1.110223024625157e-16 0.000000000000000e+00 3.552713678800501e-15
1.110223024625157e-16 5.551115123125783e-17 0.000000000000000e+00
1.110223024625157e-16 5.551115123125783e-17 -3.552713678800501e-15
1.110223024625157e-16 5.551115123125783e-17 -3.552713678800501e-15
1.110223024625157e-16 1.110223024625157e-16 -3.552713678800501e-15
2.220446049250313e-16 1.110223024625157e-16 0.000000000000000e+00
2.220446049250313e-16 1.665334536937735e-16 -3.552713678800501e-15
6.661338147750939e-16 5.551115123125783e-17 -3.552713678800501e-15
6.661338147750939e-16 5.551115123125783e-17 -3.552713678800501e-15
6.661338147750939e-16 5.551115123125783e-17 -3.552713678800501e-15
6.661338147750939e-16 5.551115123125783e-17 -7.105427357601002e-15
6.661338147750939e-16 0.000000000000000e+00 -3.552713678800501e-15
4.440892098500626e-16 0.000000000000000e+00 -3.552713678800501e-15
8.881784197001252e-16 0.000000000000000e+00 -3.552713678800501e-15
6.661338147750939e-16 5.551115123125783e-17 -3.552713678800501e-15
6.661338147750939e-16 0.000000000000000e+00 -3.552713678800501e-15
6.661338147750939e-16 0.000000000000000e+00 -3.552713678800501e-15
4.440892098500626e-16 -5.551115123125783e-17 -3.552713678800501e-15
4.440892098500626e-16 -5.551115123125783e-17 0.000000000000000e+00
-1.554312234475219e-15 6.106226635438361e-16 3.552713678800501e-15
-1.554312234475219e-15 6.106226635438361e-16 0.000000000000000e+00
-1.110223024625157e-15 6.661338147750939e-16 0.000000000000000e+00
-1.110223024625157e-15 6.106226635438361e-16 3.552713678800501e-15
-1.554312234475219e-15 6.661338147750939e-16 0.000000000000000e+00
-1.554312234475219e-15 6.106226635438361e-16 0.000000000000000e+00
4.440892098500626e-16 -5.551115123125783e-17 -3.552713678800501e-15
6.661338147750939e-16 0.000000000000000e+00 0.000000000000000e+00
2.220446049250313e-16 5.551115123125783e-17 -3.552713678800501e-15
-2.220446049250313e-16 5.551115123125783e-17 -3.552713678800501e-15
-2.220446049250313e-16 0.000000000000000e+00 -3.552713678800501e-15
-2.220446049250313e-16 5.551115123125783e-17 -3.552713678800501e-15
-8.881784197001252e-16 1.110223024625157e-16 0.000000000000000e+00
-6.661338147750939e-16 1.665334536937735e-16 -3.552713678800501e-15
-6.661338147750939e-16 2.775557561562891e-16 3.552713678800501e-15
-1.332267629550188e-15 3.330669073875470e-16 0.000000000000000e+00
-1.110223024625157e-15 5.551115123125783e-16 3.552713678800501e-15
-1.554312234475219e-15 6.661338147750939e-16 3.552713678800501e-15
3.315572342691420e-04 4.966533258584649e-04 9.559725903685035e-05
3.294042510870732e-04 4.986195171091667e-04 9.449299917463350e-05
3.264368747556423e-04 5.020394185084598e-04 9.259747161394216e-05
3.236652354314806e-04 5.064334898485789e-04 9.019482824612624e-05
3.217371960013704e-04 5.108047447579533e-04 8.782995704592622e-05
3.207657949937381e-04 5.138524932485344e-04 8.619211845228847e-05
4.670547733722774e-04 5.084093022796887e-04 9.479335541584533e-05
4.412665164175156e-04 4.997158456268025e-04 9.818403693984123e-05
4.048955396760423e-04 4.902489182986303e-04 1.016239887832171e-04
3.702950621506940e-04 4.861709914982804e-04 1.024413275665381e-04
3.462918466063947e-04 4.890589712335247e-04 1.000796411361193e-04
3.345640219875046e-04 4.944113335463296e-04 9.687466310026593e-05
9.748429126666958e-04 9.298676734837003e-04 4.166754998635724e-05
1.049121962990007e-03 9.486227236012168e-04 3.865865259911061e-06
1.090576935760312e-03 9.359598821646886e-04 -2.695488909409960e-05
1.049301407720526e-03 8.750475279097891e-04 -2.910727958393977e-05
9.554180549032898e-04 7.945599844184081e-04 -1.055359988910709e-05
8.758361647503987e-04 7.362077376904530e-04 7.776611692378310e-06
8.417820605011173e-04 7.128089697305273e-04 1.580512124021993e-05
7.897521516682104e-04 6.785575140905720e-04 2.808834391743176e-05
7.060642932426031e-04 6.269951986410671e-04 4.753147744196440e-05
6.116756104550536e-04 5.742292834148843e-04 6.831283346642181e-05
5.321781287427330e-04 5.351759503151587e-04 8.404696365005293e-05
4.849120981335053e-04 5.151454759116936e-04 9.211356297811335e-05
1.141929531083830e-04 2.576552473336768e-04 1.696652372729091e-05
9.757256795084324e-05 2.181663610492102e-04 1.647980763408441e-05
7.182569585278964e-05 1.572568571962529e-04 1.492967707150683e-05
4.329358893358226e-05 9.151248176231253e-05 1.140853181880175e-05
1.884154226153290e-05 3.813903677007957e-05 6.112046445849728e-06
3.693194362658705e-06 7.217606147413846e-06 1.366243569833614e-06
2.748147769724429e-04 5.577504719589399e-04 3.753566991093749e-05
2.677889418588597e-04 5.528071068472418e-04 3.412486918819013e-05
2.563031893424439e-04 5.414838578440273e-04 2.963330247851559e-05
2.426049065332725e-04 5.238082452185822e-04 2.564641683022728e-05
2.298954128715502e-04 5.042450004929533e-04 2.295886836023442e-05
2.214783534860154e-04 4.899339009576398e-04 2.159898664899629e-05
3.194658560582431e-04 5.187598932586690e-04 8.353426763108018e-05
3.147794785501867e-04 5.332865409907184e-04 7.505117833872532e-05
3.065449501230555e-04 5.497185676052174e-04 6.334949231856513e-05
2.959618306681566e-04 5.597411754288961e-04 5.219721878546579e-05
2.855376196788662e-04 5.616030487641810e-04 4.399382834208154e-05
2.783618762293161e-04 5.595654492536184e-04 3.948781682083791e-05
2.161822803904423e-04 4.804544598310256e-04 2.088628435004125e-05
2.032109346719047e-04 4.558997481501903e-04 1.952944798233602e-05
1.823548493539162e-04 4.131880882757288e-04 1.822680615504169e-05
1.580614961488314e-04 3.597825636900698e-04 1.755745108411588e-05
1.361037587594982e-04 3.092730462714854e-04 1.728847452397986e-05
1.218799871443577e-04 2.758532500685140e-04 1.710677247501735e-05
1.554312234475219e-15 -1.831867990631508e-15 -3.552713678800501e-15
1.776356839400250e-15 -1.998401444325282e-15 -3.552713678800501e-15
1.665334536937735e-15 -2.220446049250313e-15 0.000000000000000e+00
1.776356839400250e-15 -2.442490654175344e-15 0.000000000000000e+00
1.998401444325282e-15 -2.664535259100376e-15 -3.552713678800501e-15
1.887379141862766e-15 -2.775557561562891e-15 0.000000000000000e+00
9.992007221626409e-16 -7.216449660063518e-16 -3.552713678800501e-15
9.436895709313831e-16 -8.326672684688674e-16 0.000000000000000e+00
1.221245327087672e-15 -1.054711873393899e-15 0.000000000000000e+00
1.332267629550188e-15 -1.332267629550188e-15 -3.552713678800501e-15
1.443289932012704e-15 -1.609823385706477e-15 -3.552713678800501e-15
1.554312234475219e-15 -1.831867990631508e-15 0.000000000000000e+00
0.000000000000000e+00 -5.551115123125783e-17 0.000000000000000e+00
2.775557561562891e-17 0.000000000000000e+00 0.000000000000000e+00
1.387778780781446e-16 -5.551115123125783e-17 0.000000000000000e+00
3.885780586188048e-16 -2.220446049250313e-16 0.000000000000000e+00
4.996003610813204e-16 -3.885780586188048e-16 0.000000000000000e+00
7.771561172376096e-16 -6.106226635438361e-16 0.000000000000000e+00
1.110223024625157e-15 -3.941291737419306e-15 3.552713678800501e-15
1.110223024625157e-15 -3.996802888650564e-15 3.552713678800501e-15
1.110223024625157e-15 -3.996802888650564e-15 3.552713678800501e-15
8.881784197001252e-16 -4.052314039881821e-15 0.000000000000000e+00
4.440892098500626e-16 -4.163336342344337e-15 3.552713678800501e-15
4.440892098500626e-16 -4.163336342344337e-15 3.552713678800501e-15
1.776356839400250e-15 -2.831068712794149e-15 0.000000000000000e+00
1.998401444325282e-15 -3.053113317719180e-15 0.000000000000000e+00
1.665334536937735e-15 -3.275157922644212e-15 -3.552713678800501e-15
1.665334536937735e-15 -3.552713678800501e-15 3.552713678800501e-15
1.554312234475219e-15 -3.774758283725532e-15 0.000000000000000e+00
1.110223024625157e-15 -3.885780586188048e-15 3.552713678800501e-15
-6.661338147750939e-16 -4.607425552194400e-15 3.552713678800501e-15
-4.440892098500626e-16 -4.607425552194400e-15 0.000000000000000e+00
-6.661338147750939e-16 -4.829470157119431e-15 7.105427357601002e-15
-6.661338147750939e-16 -5.107025913275720e-15 7.105427357601002e-15
-4.440892098500626e-16 -5.329070518200751e-15 7.105427357601002e-15
-2.220446049250313e-16 -5.495603971894525e-15 7.105427357601002e-15
-2.220446049250313e-16 -5.662137425588298e-15 7.105427357601002e-15
2.220446049250313e-16 -5.995204332975845e-15 3.552713678800501e-15
8.881784197001252e-16 -6.494804694057166e-15 3.552713678800501e-15
1.998401444325282e-15 -7.271960811294775e-15 0.000000000000000e+00
2.664535259100376e-15 -8.104628079763643e-15 -7.105427357601002e-15
3.330669073875470e-15 -8.659739592076221e-15 0.000000000000000e+00
3.330669073875470e-15 -8.826273045769994e-15 -7.105427357601002e-15
3.330669073875470e-15 -8.826273045769994e-15 -7.105427357601002e-15
3.552713678800501e-15 -8.881784197001252e-15 -3.552713678800501e-15
3.330669073875470e-15 -8.881784197001252e-15 -7.105427357601002e-15
3.108624468950438e-15 -8.826273045769994e-15 -3.552713678800501e-15
3.330669073875470e-15 -8.881784197001252e-15 -7.105427357601002e-15
4.440892098500626e-16 -4.163336342344337e-15 3.552713678800501e-15
2.220446049250313e-16 -4.163336342344337e-15 3.552713678800501e-15
2.220446049250313e-16 -4.218847493575595e-15 3.552713678800501e-15
4.440892098500626e-16 -4.274358644806853e-15 3.552713678800501e-15
2.220446049250313e-16 -4.163336342344337e-15 7.105427357601002e-15
0.000000000000000e+00 -4.163336342344337e-15 3.552713678800501e-15
-4.440892098500626e-16 -4.274358644806853e-15 3.552713678800501e-15
0.000000000000000e+00 -4.329869796038111e-15 7.105427357601002e-15
-2.220446049250313e-16 -4.329869796038111e-15 7.105427357601002e-15
-4.440892098500626e-16 -4.385380947269368e-15 3.552713678800501e-15
-8.881784197001252e-16 -4.440892098500626e-15 7.105427357601002e-15
-2.220446049250313e-16 -4.607425552194400e-15 0.000000000000000e+00
        </DataArray>
        <DataArray type="Float64" Name="projection_direction" NumberOfComponents="3" format="ascii">
-1.387778780781446e-17 0.000000000000000e+00 0.000000000000000e+00
0.000000000000000e+00 0.000000000000000e+00 -3.552713678800501e-15
5.551115123125783e-17 0.000000000000000e+00 -3.552713678800501e-15
5.551115123125783e-17 0.000000000000000e+00 -3.552713678800501e-15
5.551115123125783e-17 0.000000000000000e+00 0.000000000000000e+00
5.551115123125783e-17 0.000000000000000e+00 0.000000000000000e+00
-6.661338147750939e-16 0.000000000000000e+00 -3.552713678800501e-15
-4.440892098500626e-16 5.551115123125783e-17 3.552713678800501e-15
0.000000000000000e+00 5.551115123125783e-17 0.000000000000000e+00
-2.220446049250313e-16 5.551115123125783e-17 3.552713678800501e-15
-2.220446049250313e-16 5.551115123125783e-17 3.552713678800501e-15
-6.661338147750939e-16 5.551115123125783e-17 3.552713678800501e-15
0.000000000000000e+00 5.551115123125783e-17 -3.552713678800501e-15
-1.110223024625157e-16 5.551115123125783e-17 -3.552713678800501e-15
-3.330669073875470e-16 0.000000000000000e+00 3.552713678800501e-15
1.110223024625157e-16 0.000000000000000e+00 3.552713678800501e-15
0.000000000000000e+00 5.551115123125783e-17 0.000000000000000e+00
-2.220446049250313e-16 5.551115123125783e-17 0.000000000000000e+00
5.551115123125783e-17 0.000000000000000e+00 0.000000000000000e+00
-1.110223024625157e-16 0.000000000000000e+00 -3.552713678800501e-15
1.110223024625157e-16 5.551115123125783e-17 -3.552713678800501e-15
0.000000000000000e+00 0.000000000000000e+00 -3.552713678800501e-15
-1.110223024625157e-16 5.551115123125783e-17 0.000000000000000e+00
-2.220446049250313e-16 5.551115123125783e-17 -7.105427357601002e-15
0.000000000000000e+00 5.551115123125783e-17 -3.552713678800501e-15
-1.110223024625157e-16 5.551115123125783e-17 3.552713678800501e-15
0.000000000000000e+00 1.110223024625157e-16 3.552713678800501e-15
0.000000000000000e+00 5.551115123125783e-17 0.000000000000000e+00
-1.110223024625157e-16 1.110223024625157e-16 -3.552713678800501e-15
-1.110223024625157e-16 1.110223024625157e-16 3.552713678800501e-15
-4.440892098500626e-16 1.110223024625157e-16 3.552713678800501e-15
-6.661338147750939e-16 0.000000000000000e+00 3.552713678800501e-15
-2.220446049250313e-16 1.665334536937735e-16 3.552713678800501e-15
-4.440892098500626e-16 5.551115123125783e-17 7.105427357601002e-15
0.000000000000000e+00 5.551115123125783e-17 3.552713678800501e-15
-2.220446049250313e-16 1.110223024625157e-16 3.552713678800501e-15
-6.661338147750939e-16 1.110223024625157e-16 3.552713678800501e-15
-4.440892098500626e-16 5.551115123125783e-17 7.105427357601002e-15
-4.440892098500626e-16 1.110223024625157e-16 3.552713678800501e-15
-2.220446049250313e-16 5.551115123125783e-17 3.552713678800501e-15
-2.220446049250313e-16 1.110223024625157e-16 3.552713678800501e-15
-2.220446049250313e-16 1.665334536937735e-16 0.000000000000000e+00
-6.661338147750939e-16 -5.551115123125783e-17 -3.552713678800501e-15
-6.661338147750939e-16 -5.551115123125783e-17 0.000000000000000e+00
-8.881784197001252e-16 -1.110223024625157e-16 0.000000000000000e+00
-1.110223024625157e-15 -1.110223024625157e-16 -3.552713678800501e-15
-6.661338147750939e-16 -1.110223024625157e-16 0.000000000000000e+00
-6.661338147750939e-16 0.000000000000000e+00 -3.552713678800501e-15
-2.220446049250313e-16 1.110223024625157e-16 3.552713678800501e-15
-2.220446049250313e-16 5.551115123125783e-17 7.105427357601002e-15
-2.220446049250313e-16 0.000000000000000e+00 3.552713678800501e-15
2.220446049250313e-16 -5.551115123125783e-17 7.105427357601002e-15
0.000000000000000e+00 -5.551115123125783e-17 3.552713678800501e-15
2.220446049250313e-16 -1.665334536937735e-16 3.552713678800501e-15
6.661338147750939e-16 -5.551115123125783e-17 0.000000000000000e+00
0.000000000000000e+00 -1.110223024625157e-16 0.000000000000000e+00
-4.440892098500626e-16 -1.110223024625157e-16 -3.552713678800501e-15
0.000000000000000e+00 0.000000000000000e+00 0.000000000000000e+00
-8.881784197001252e-16 -1.110223024625157e-16 -3.552713678800501e-15
-6.661338147750939e-16 -1.665334536937735e-16 -7.105427357601002e-15
2.965100861584968e-05 9.715448483860190e-05 1.820647849370971e-06
1.903073123521448e-05 8.126369400940359e-05 2.386100902640464e-06
4.016430238507063e-06 5.754081559927737e-05 3.468706506026820e-06
-1.079073154375276e-05 3.227339599898293e-05 4.992233581191385e-06
-2.208924816782254e-05 1.126043950483435e-05 6.613289180279480e-06
-2.848206242966889e-05 -1.547715359984103e-06 7.790887721625950e-06
-3.740157902221153e-05 7.721245160319246e-05 -5.622449630493520e-05
-4.231992066661139e-05 7.784364465701632e-05 -4.979980426966790e-05
-4.681843140086350e-05 7.331692820433666e-05 -3.895264011788413e-05
-3.849215227091918e-05 6.924688419784886e-05 -2.509974624942402e-05
-1.019966434057107e-05 7.773142283817869e-05 -1.103692550330493e-05
2.228309292229280e-05 9.495742973897325e-05 -9.555733093691288e-07
1.000816067143750e-04 1.965828545963944e-04 -8.837534452865725e-05
-2.267790244325774e-05 4.223507616807343e-05 -2.553046459397024e-05
-5.152089866122811e-05 -8.101914446662084e-05 3.420092627237636e-05
-2.856541665030576e-05 -1.021870649113854e-04 5.369044786718291e-05
-5.413300217416150e-06 -6.745978079331083e-05 3.671051958065163e-05
4.628749538571064e-05 -2.118059463623867e-05 1.263607550683332e-05
6.831985295274734e-05 2.380130814327863e-06 2.101357388539782e-06
6.858371663631679e-05 3.246120300171018e-05 -1.064211599199893e-05
6.863824477032487e-05 7.541430521501580e-05 -2.884399795277659e-05
4.868841692751147e-05 1.030434902209443e-04 -4.535353355805682e-05
7.667320169213454e-06 9.929506954375888e-05 -5.477174609680446e-05
-2.709442421577890e-05 8.219316387692022e-05 -5.753729643132033e-05
-3.327713239326124e-06 1.508979797526511e-04 -6.083897861941523e-06
-2.693574936485366e-06 1.307645199605245e-04 -2.610280056103420e-06
-9.539763556554171e-06 2.813591034445118e-05 6.320854275543297e-07
-1.019191208376236e-05 -1.102996972072168e-04 1.740321799559297e-06
-1.006082275156750e-06 -1.366530110357145e-04 1.119511562563957e-06
1.297626926424766e-06 -4.253201955484176e-05 2.468460742477419e-07
2.178322515655751e-05 -1.144802222523555e-04 4.753179550220921e-05
2.684445862533025e-05 -1.065277242103813e-04 4.235274904829112e-05
2.905698439337190e-05 -9.086905759425612e-05 3.139759086323579e-05
2.461196641156960e-05 -6.820843209787153e-05 1.494062258089457e-05
1.760729319605359e-05 -4.005139880558506e-05 -3.097695099540942e-06
1.345897837284893e-05 -1.476697521618497e-05 -1.632198107870408e-05
-3.703529233178848e-05 -2.033341151919110e-05 9.752817572206141e-06
-5.223227725703605e-05 -6.970466304689893e-05 1.613425673951951e-05