<?xml version="1.0" ?> 
<!-- 
# vtk DataFile Version 3.0
-->
<VTKFile type="UnstructuredGrid" version="0.1" compressor="vtkZLibDataCompressor" byte_order="LittleEndian">
  <UnstructuredGrid>
    <FieldData>
      <DataArray type="Float64" Name="TIME" NumberOfTuples="1" format="ascii">
1.000000000000000e+00 
      </DataArray>
    </FieldData>

    <Piece NumberOfPoints="56" NumberOfCells="0" >
      <Points>
        <DataArray type="Float64" NumberOfComponents="3" format="ascii">
1.000000000000000e-01 3.000000000000000e-01 1.750000000000000e+01
4.285291040100552e-01 3.000000000000000e-01 1.767208667352902e+01
1.053627568438915e+00 3.000000000000000e-01 1.799951920251567e+01
1.150000000000000e+00 3.000000000000000e-01 1.805000000000000e+01
8.155693453509689e-01 3.000000000000000e-01 1.787482203804104e+01
1.053627568438921e+00 3.000000000000000e-01 1.799951920251567e+01
4.285291040100551e-01 3.000000000000000e-01 1.767208667352902e+01
6.456898118068788e-01 3.000000000000000e-01 1.778583752047028e+01
6.456898118068778e-01 3.000000000000000e-01 1.778583752047028e+01
8.155693453509669e-01 2.999999999999999e-01 1.787482203804103e+01
1.150000000000000e+00 3.000000000000000e-01 1.805000000000000e+01
1.204849796232627e+00 2.999999999999999e-01 1.807873084564564e+01
1.204849796232627e+00 3.000000000000000e-01 1.807873084564563e+01
1.312800678365585e+00 3.000000000000000e-01 1.813527654581049e+01
1.995978191111751e+00 2.999999999999999e-01 1.849313143343955e+01
2.000000000000000e+00 2.999999999999999e-01 1.849523809523815e+01
1.312800678365585e+00 3.000000000000000e-01 1.813527654581049e+01
1.590794601595392e+00 3.000000000000000e-01 1.828089241035947e+01
1.590794601595393e+00 3.000000000000000e-01 1.828089241035947e+01
1.995978191111751e+00 3.000000000000000e-01 1.849313143343955e+01
7.282912294134959e-01 6.852366693390888e-01 2.068414601579194e+01
7.071067811870000e-01 7.071067811870000e-01 2.071460183660000e+01
8.076108102509371e-01 5.890449378240568e-01 2.055929315811433e+01
7.282912294134961e-01 6.852366693390888e-01 2.068414601579194e+01
9.973931080192994e-01 7.070272402877290e-02 1.999999998885323e+01
9.099650212282826e-01 4.123008091368161e-01 2.035460298935891e+01
9.099650212282833e-01 4.123008091368143e-01 2.035460298935891e+01
8.076108102509362e-01 5.890449378240580e-01 2.055929315811433e+01
2.527815540384706e-01 9.667300861487246e-01 2.124416147965651e+01
0.000000000000000e+00 1.000000000000000e+00 2.150000000000000e+01
5.837516764426333e-01 8.114136823547502e-01 2.087643344895821e+01
4.573945845398238e-01 8.882386764163268e-01 2.102452754077683e+01
7.071067811870000e-01 7.071067811870000e-01 2.071460183660000e+01
5.837516764426296e-01 8.114136823547528e-01 2.087643344895821e+01
4.573945845398235e-01 8.882386764163269e-01 2.102452754077683e+01
2.527815540384732e-01 9.667300861487240e-01 2.124416147965651e+01
6.456898117728429e-01 3.000000000000000e-01 2.278583752045245e+01
8.155693453656024e-01 3.000000000000000e-01 2.287482203804870e+01
4.285291039950258e-01 3.000000000000000e-01 2.267208667352115e+01
6.456898117728416e-01 2.999999999999999e-01 2.278583752045244e+01
1.000000000000000e-01 3.000000000000000e-01 2.250000000000000e+01
4.285291039950233e-01 3.000000000000000e-01 2.267208667352115e+01
1.053627568438918e+00 2.999999999999999e-01 2.299951920251566e+01
1.150000000000000e+00 3.000000000000000e-01 2.305000000000000e+01
8.155693453656018e-01 2.999999999999999e-01 2.287482203804870e+01
1.053627568438926e+00 3.000000000000000e-01 2.299951920251567e+01
1.312800678387913e+00 3.000000000000000e-01 2.313527654582218e+01
1.590794601608112e+00 3.000000000000000e-01 2.328089241036613e+01
1.590794601608110e+00 3.000000000000000e-01 2.328089241036613e+01
1.995978191109079e+00 3.000000000000000e-01 2.349313143343815e+01
1.995978191109072e+00 3.000000000000000e-01 2.349313143343815e+01
2.000000000000000e+00 3.000000000000000e-01 2.349523809523815e+01
1.150000000000000e+00 3.000000000000000e-01 2.305000000000000e+01
1.204849796220207e+00 3.000000000000000e-01 2.307873084563913e+01
1.204849796220205e+00 3.000000000000000e-01 2.307873084563913e+01
1.312800678387917e+00 3.000000000000000e-01 2.313527654582218e+01
        </DataArray>
      </Points>

      <Cells>
        <DataArray type="Int32" Name="connectivity" format="ascii">

        </DataArray>
        <DataArray type="Int32" Name="offsets" format="ascii">

        </DataArray>
        <DataArray type="UInt8" Name="types" format="ascii">

        </DataArray>
      </Cells>

  <PointData>
        <DataArray type="Float64" Name="displacement" NumberOfComponents="3" format="ascii">
0.000000000000000e+00 0.000000000000000e+00 0.000000000000000e+00
-1.110223024625157e-16 0.000000000000000e+00 3.552713678800501e-15
2.220446049250313e-16 1.110223024625157e-16 -3.552713678800501e-15
6.661338147750939e-16 5.551115123125783e-17 -3.552713678800501e-15
4.440892098500626e-16 1.110223024625157e-16 -3.552713678800501e-15
4.440892098500626e-16 1.110223024625157e-16 -3.552713678800501e-15
-5.551115123125783e-17 0.000000000000000e+00 0.000000000000000e+00
0.000000000000000e+00 5.551115123125783e-17 -3.552713678800501e-15
0.000000000000000e+00 0.000000000000000e+00 -3.552713678800501e-15
2.220446049250313e-16 1.665334536937735e-16 -3.552713678800501e-15
6.661338147750939e-16 5.551115123125783e-17 -3.552713678800501e-15
6.661338147750939e-16 5.551115123125783e-17 -3.552713678800501e-15
6.661338147750939e-16 0.000000000000000e+00 -3.552713678800501e-15
4.440892098500626e-16 -5.551115123125783e-17 -3.552713678800501e-15
-1.110223024625157e-15 6.661338147750939e-16 3.552713678800501e-15
-1.110223024625157e-15 7.216449660063518e-16 3.552713678800501e-15
4.440892098500626e-16 0.000000000000000e+00 -3.552713678800501e-15
-4.440892098500626e-16 1.110223024625157e-16 0.000000000000000e+00
-4.440892098500626e-16 1.110223024625157e-16 0.000000000000000e+00
-1.332267629550188e-15 6.661338147750939e-16 3.552713678800501e-15
3.321229414243732e-04 4.961913584049515e-04 9.585867903183498e-05
3.205567768014284e-04 5.146409547357456e-04 8.576962489215134e-05
4.737403331901424e-04 5.108693452788859e-04 9.381828120780256e-05
3.321229414243732e-04 4.961913584049515e-04 9.585867903538769e-05
9.498405400248933e-04 9.214206762195032e-04 5.356140900047990e-05
8.543919165221459e-04 7.213780451604812e-04 1.282751395592641e-05
8.543919165222569e-04 7.213780451605922e-04 1.282751395592641e-05
4.737403331901424e-04 5.108693452788859e-04 9.381828120780256e-05
1.183305172782201e-04 2.674591457766384e-04 1.704705963945230e-05
0.000000000000000e+00 0.000000000000000e+00 0.000000000000000e+00
2.765194805780524e-04 5.586840718464492e-04 3.845303601579531e-05
2.193536754143133e-04 4.861724254062727e-04 2.130073971429169e-05
3.205567768014284e-04 5.146409547357456e-04 8.576962489215134e-05
2.765194805780524e-04 5.586840718465602e-04 3.845303601579531e-05
2.193536754143133e-04 4.861724254062727e-04 2.130073971429169e-05
1.183305172782756e-04 2.674591457766384e-04 1.704705963945230e-05
1.554312234475219e-15 -1.831867990631508e-15 -3.552713678800501e-15
1.887379141862766e-15 -2.831068712794149e-15 0.000000000000000e+00
8.326672684688674e-16 -7.216449660063518e-16 0.000000000000000e+00
1.776356839400250e-15 -1.776356839400250e-15 0.000000000000000e+00
0.000000000000000e+00 0.000000000000000e+00 0.000000000000000e+00
7.771561172376096e-16 -7.216449660063518e-16 0.000000000000000e+00
1.110223024625157e-15 -3.885780586188048e-15 3.552713678800501e-15
4.440892098500626e-16 -4.163336342344337e-15 3.552713678800501e-15
1.887379141862766e-15 -2.775557561562891e-15 -7.105427357601002e-15
1.110223024625157e-15 -3.996802888650564e-15 3.552713678800501e-15
-4.440892098500626e-16 -4.496403249731884e-15 7.105427357601002e-15
0.000000000000000e+00 -5.606626274357041e-15 3.552713678800501e-15
0.000000000000000e+00 -5.551115123125783e-15 7.105427357601002e-15
3.108624468950438e-15 -8.826273045769994e-15 -3.552713678800501e-15
3.330669073875470e-15 -8.881784197001252e-15 0.000000000000000e+00
3.108624468950438e-15 -8.881784197001252e-15 0.000000000000000e+00
4.440892098500626e-16 -4.163336342344337e-15 3.552713678800501e-15
-2.220446049250313e-16 -4.274358644806853e-15 7.105427357601002e-15
-4.440892098500626e-16 -4.329869796038111e-15 3.552713678800501e-15
-6.661338147750939e-16 -4.551914400963142e-15 7.105427357601002e-15
        </DataArray>
        <DataArray type="Float64" Name="projection_direction" NumberOfComponents="3" format="ascii">
-5.551115123125783e-17 -5.551115123125783e-17 0.000000000000000e+00
5.551115123125783e-17 0.000000000000000e+00 -3.552713678800501e-15
0.000000000000000e+00 5.551115123125783e-17 7.105427357601002e-15
-4.440892098500626e-16 5.551115123125783e-17 0.000000000000000e+00
-3.330669073875470e-16 5.551115123125783e-17 0.000000000000000e+00
-2.220446049250313e-16 0.000000000000000e+00 0.000000000000000e+00
1.110223024625157e-16 0.000000000000000e+00 0.000000000000000e+00
-1.110223024625157e-16 1.110223024625157e-16 3.552713678800501e-15
-3.330669073875470e-16 1.110223024625157e-16 0.000000000000000e+00
-1.110223024625157e-16 5.551115123125783e-17 7.105427357601002e-15
-4.440892098500626e-16 5.551115123125783e-17 0.000000000000000e+00
-2.220446049250313e-16 1.110223024625157e-16 3.552713678800501e-15
-6.661338147750939e-16 1.110223024625157e-16 1.065814103640150e-14
2.220446049250313e-16 1.665334536937735e-16 0.000000000000000e+00
-8.881784197001252e-16 -5.551115123125783e-17 -3.552713678800501e-15
-1.110223024625157e-15 -1.110223024625157e-16 -3.552713678800501e-15
-8.881784197001252e-16 5.551115123125783e-17 0.000000000000000e+00
2.220446049250313e-16 -1.665334536937735e-16 3.552713678800501e-15
4.440892098500626e-16 -1.665334536937735e-16 3.552713678800501e-15
-1.110223024625157e-15 -1.665334536937735e-16 -7.105427357601002e-15
3.241770783535269e-05 1.011908133703443e-04 1.695424597158990e-06
-2.997194594289709e-05 -4.653093636841632e-06 8.100902306296121e-06
-3.622027807392847e-05 7.636441459024645e-05 -5.777146045460313e-05
3.241770783513065e-05 1.011908133703443e-04 1.695424590053562e-06
1.531175174729338e-04 2.450265754324749e-04 -1.072729109239390e-04
6.928688302954011e-05 -4.810967039192704e-06 5.345936642697779e-06
6.928688302965114e-05 -4.810967039192704e-06 5.345936656908634e-06
-3.622027807392847e-05 7.636441459035748e-05 -5.777146045460313e-05
-4.940411619747120e-06 1.485383360485537e-04 -7.139072906170441e-06
1.503540580297527e-18 0.000000000000000e+00 -1.421085471520200e-14
2.009175413808517e-05 -1.161222901401304e-04 4.859116447875067e-05
1.263444537363823e-05 -7.243468768791672e-06 -1.980848262306267e-05
-2.997194594289709e-05 -4.653093636841632e-06 8.100902306296121e-06
2.009175413819619e-05 -1.161222901401304e-04 4.859116447164524e-05
1.263444537341618e-05 -7.243468768791672e-06 -1.980848263372081e-05
-4.940411619913654e-06 1.485383360484427e-04 -7.139072906170441e-06
4.440892098500626e-16 -1.110223024625157e-16 1.065814103640150e-14
0.000000000000000e+00 -2.220446049250313e-16 7.105427357601002e-15
2.220446049250313e-16 3.330669073875470e-16 0.000000000000000e+00
4.440892098500626e-16 -5.551115123125783e-17 1.421085471520200e-14
-8.326672684688674e-17 -1.665334536937735e-16 0.000000000000000e+00
2.220446049250313e-16 4.440892098500626e-16 1.421085471520200e-14
2.220446049250313e-16 2.220446049250313e-16 1.421085471520200e-14
0.000000000000000e+00 1.665334536937735e-16 0.000000000000000e+00
0.000000000000000e+00 -2.220446049250313e-16 1.065814103640150e-14
-6.661338147750939e-16 1.110223024625157e-16 -3.552713678800501e-15
4.440892098500626e-16 -1.110223024625157e-16 -1.065814103640150e-14
0.000000000000000e+00 0.000000000000000e+00 -3.552713678800501e-15
4.440892098500626e-16 -1.110223024625157e-16 -3.552713678800501e-15
1.332267629550188e-15 -1.110223024625157e-16 1.421085471520200e-14
6.661338147750939e-16 -1.665334536937735e-16 -3.552713678800501e-15
1.332267629550188e-15 -1.665334536937735e-16 1.065814103640150e-14
0.000000000000000e+00 1.665334536937735e-16 0.000000000000000e+00
2.220446049250313e-16 1.110223024625157e-16 -1.065814103640150e-14
6.661338147750939e-16 2.775557561562891e-16 3.552713678800501e-15
2.220446049250313e-16 -5.551115123125783e-17 -3.552713678800501e-15
        </DataArray>
        <DataArray type="Int32" Name="uid_0_pair_beam_id" format="ascii">
281
281
281
281
281
281
281
281
281
281
282
282
282
282
282
282
282
282
282
282
283
283
283
283
283
283
283
283
284
284
284
284
284
284
284
284
285
285
285
285
285
285
285
285
285
285
286
286
286
286
286
286
286
286
286
286
        </DataArray>
        <DataArray type="Int32" Name="uid_1_pair_solid_id" format="ascii">
133
133
146
146
150
150
106
106
105
105
146
146
149
149
127
127
99
99
103
103
173
173
191
191
206
206
166
166
159
159
177
177
173
173
201
201
213
213
214
214
241
241
254
254
258
258
207
207
211
211
235
235
254
254
257
257
        </DataArray>
      </PointData>

    </Piece>
  </UnstructuredGrid>
</VTKFile>
