<?xml version="1.0" ?> 
<!-- 
# vtk DataFile Version 3.0
-->
<VTKFile type="UnstructuredGrid" version="0.1" compressor="vtkZLibDataCompressor" byte_order="LittleEndian">
  <UnstructuredGrid>
    <FieldData>
      <DataArray type="Float64" Name="TIME" NumberOfTuples="1" format="ascii">
1.000000000000000e+00 
      </DataArray>
    </FieldData>

    <Piece NumberOfPoints="204" NumberOfCells="0" >
      <Points>
        <DataArray type="Float64" NumberOfComponents="3" format="ascii">
5.000000000000000e-01 8.660254037839999e-01 5.000000000000000e-01
0.000000000000000e+00 1.000000000000000e+00 5.000000000000000e-01
0.000000000000000e+00 1.000000000000000e+00 1.000000000000000e+00
5.000000000000000e-01 8.660254037839999e-01 1.000000000000000e+00
1.000000000000000e+00 0.000000000000000e+00 1.000000000000000e+00
8.660254037839999e-01 5.000000000000000e-01 1.000000000000000e+00
8.660254037839999e-01 5.000000000000000e-01 1.500000000000000e+00
1.000000000000000e+00 0.000000000000000e+00 1.500000000000000e+00
8.660254037839999e-01 5.000000000000000e-01 5.000000000000000e-01
5.000000000000000e-01 8.660254037839999e-01 5.000000000000000e-01
5.000000000000000e-01 8.660254037839999e-01 1.000000000000000e+00
8.660254037839999e-01 5.000000000000000e-01 1.000000000000000e+00
1.000000000000000e+00 0.000000000000000e+00 5.000000000000000e-01
8.660254037839999e-01 5.000000000000000e-01 5.000000000000000e-01
8.660254037839999e-01 5.000000000000000e-01 1.000000000000000e+00
1.000000000000000e+00 0.000000000000000e+00 1.000000000000000e+00
5.000000000000000e-01 8.660254037839999e-01 0.000000000000000e+00
0.000000000000000e+00 1.000000000000000e+00 0.000000000000000e+00
0.000000000000000e+00 1.000000000000000e+00 5.000000000000000e-01
5.000000000000000e-01 8.660254037839999e-01 5.000000000000000e-01
8.660254037839999e-01 5.000000000000000e-01 0.000000000000000e+00
5.000000000000000e-01 8.660254037839999e-01 0.000000000000000e+00
5.000000000000000e-01 8.660254037839999e-01 5.000000000000000e-01
8.660254037839999e-01 5.000000000000000e-01 5.000000000000000e-01
1.000000000000000e+00 0.000000000000000e+00 0.000000000000000e+00
8.660254037839999e-01 5.000000000000000e-01 0.000000000000000e+00
8.660254037839999e-01 5.000000000000000e-01 5.000000000000000e-01
1.000000000000000e+00 0.000000000000000e+00 5.000000000000000e-01
8.660254037839999e-01 5.000000000000000e-01 1.000000000000000e+00
5.000000000000000e-01 8.660254037839999e-01 1.000000000000000e+00
5.000000000000000e-01 8.660254037839999e-01 1.500000000000000e+00
8.660254037839999e-01 5.000000000000000e-01 1.500000000000000e+00
5.000000000000000e-01 8.660254037839999e-01 1.000000000000000e+00
0.000000000000000e+00 1.000000000000000e+00 1.000000000000000e+00
0.000000000000000e+00 1.000000000000000e+00 1.500000000000000e+00
5.000000000000000e-01 8.660254037839999e-01 1.500000000000000e+00
5.000000000000000e-01 3.000000000000000e-01 3.000000000000000e+00
5.000000000000000e-01 3.000000000000000e-01 3.500000000000000e+00
1.000000000000000e+00 3.000000000000000e-01 3.500000000000000e+00
1.000000000000000e+00 3.000000000000000e-01 3.000000000000000e+00
0.000000000000000e+00 3.000000000000000e-01 2.500000000000000e+00
0.000000000000000e+00 3.000000000000000e-01 3.000000000000000e+00
5.000000000000000e-01 3.000000000000000e-01 3.000000000000000e+00
5.000000000000000e-01 3.000000000000000e-01 2.500000000000000e+00
0.000000000000000e+00 3.000000000000000e-01 3.000000000000000e+00
0.000000000000000e+00 3.000000000000000e-01 3.500000000000000e+00
5.000000000000000e-01 3.000000000000000e-01 3.500000000000000e+00
5.000000000000000e-01 3.000000000000000e-01 3.000000000000000e+00
1.000000000000000e+00 3.000000000000000e-01 2.500000000000000e+00
1.000000000000000e+00 3.000000000000000e-01 3.000000000000000e+00
1.500000000000000e+00 3.000000000000000e-01 3.000000000000000e+00
1.500000000000000e+00 3.000000000000000e-01 2.500000000000000e+00
1.000000000000000e+00 3.000000000000000e-01 3.000000000000000e+00
1.000000000000000e+00 3.000000000000000e-01 3.500000000000000e+00
1.500000000000000e+00 3.000000000000000e-01 3.500000000000000e+00
1.500000000000000e+00 3.000000000000000e-01 3.000000000000000e+00
5.000000000000000e-01 3.000000000000000e-01 2.500000000000000e+00
5.000000000000000e-01 3.000000000000000e-01 3.000000000000000e+00
1.000000000000000e+00 3.000000000000000e-01 3.000000000000000e+00
1.000000000000000e+00 3.000000000000000e-01 2.500000000000000e+00
1.500000000000000e+00 3.000000000000000e-01 3.000000000000000e+00
1.500000000000000e+00 3.000000000000000e-01 3.500000000000000e+00
2.000000000000000e+00 3.000000000000000e-01 3.500000000000000e+00
2.000000000000000e+00 3.000000000000000e-01 3.000000000000000e+00
1.500000000000000e+00 3.000000000000000e-01 2.500000000000000e+00
1.500000000000000e+00 3.000000000000000e-01 3.000000000000000e+00
2.000000000000000e+00 3.000000000000000e-01 3.000000000000000e+00
2.000000000000000e+00 3.000000000000000e-01 2.500000000000000e+00
5.000000000000000e-01 8.660254037839999e-01 6.000000000000000e+00
0.000000000000000e+00 1.000000000000000e+00 6.000000000000000e+00
0.000000000000000e+00 1.000000000000000e+00 6.500000000000000e+00
5.000000000000000e-01 8.660254037839999e-01 6.500000000000000e+00
2.588190451030000e-01 9.659258262890000e-01 6.000000000000000e+00
0.000000000000000e+00 1.000000000000000e+00 6.250000000000000e+00
2.588190451030000e-01 9.659258262890000e-01 6.500000000000000e+00
5.000000000000000e-01 8.660254037839999e-01 6.250000000000000e+00
8.660254037839999e-01 5.000000000000000e-01 6.000000000000000e+00
5.000000000000000e-01 8.660254037839999e-01 6.000000000000000e+00
5.000000000000000e-01 8.660254037839999e-01 6.500000000000000e+00
8.660254037839999e-01 5.000000000000000e-01 6.500000000000000e+00
7.071067811870000e-01 7.071067811870000e-01 6.000000000000000e+00
5.000000000000000e-01 8.660254037839999e-01 6.250000000000000e+00
7.071067811870000e-01 7.071067811870000e-01 6.500000000000000e+00
8.660254037839999e-01 5.000000000000000e-01 6.250000000000000e+00
1.000000000000000e+00 0.000000000000000e+00 6.000000000000000e+00
8.660254037839999e-01 5.000000000000000e-01 6.000000000000000e+00
8.660254037839999e-01 5.000000000000000e-01 6.500000000000000e+00
1.000000000000000e+00 0.000000000000000e+00 6.500000000000000e+00
9.659258262890000e-01 2.588190451030000e-01 6.000000000000000e+00
8.660254037839999e-01 5.000000000000000e-01 6.250000000000000e+00
9.659258262890000e-01 2.588190451030000e-01 6.500000000000000e+00
1.000000000000000e+00 0.000000000000000e+00 6.250000000000000e+00
5.000000000000000e-01 8.660254037839999e-01 5.500000000000000e+00
0.000000000000000e+00 1.000000000000000e+00 5.500000000000000e+00
0.000000000000000e+00 1.000000000000000e+00 6.000000000000000e+00
5.000000000000000e-01 8.660254037839999e-01 6.000000000000000e+00
2.588190451030000e-01 9.659258262890000e-01 5.500000000000000e+00
0.000000000000000e+00 1.000000000000000e+00 5.750000000000000e+00
2.588190451030000e-01 9.659258262890000e-01 6.000000000000000e+00
5.000000000000000e-01 8.660254037839999e-01 5.750000000000000e+00
8.660254037839999e-01 5.000000000000000e-01 5.500000000000000e+00
5.000000000000000e-01 8.660254037839999e-01 5.500000000000000e+00
5.000000000000000e-01 8.660254037839999e-01 6.000000000000000e+00
8.660254037839999e-01 5.000000000000000e-01 6.000000000000000e+00
7.071067811870000e-01 7.071067811870000e-01 5.500000000000000e+00
5.000000000000000e-01 8.660254037839999e-01 5.750000000000000e+00
7.071067811870000e-01 7.071067811870000e-01 6.000000000000000e+00
8.660254037839999e-01 5.000000000000000e-01 5.750000000000000e+00
1.000000000000000e+00 0.000000000000000e+00 5.500000000000000e+00
8.660254037839999e-01 5.000000000000000e-01 5.500000000000000e+00
8.660254037839999e-01 5.000000000000000e-01 6.000000000000000e+00
1.000000000000000e+00 0.000000000000000e+00 6.000000000000000e+00
9.659258262890000e-01 2.588190451030000e-01 5.500000000000000e+00
8.660254037839999e-01 5.000000000000000e-01 5.750000000000000e+00
9.659258262890000e-01 2.588190451030000e-01 6.000000000000000e+00
1.000000000000000e+00 0.000000000000000e+00 5.750000000000000e+00
1.000000000000000e+00 0.000000000000000e+00 5.000000000000000e+00
8.660254037839999e-01 5.000000000000000e-01 5.000000000000000e+00
8.660254037839999e-01 5.000000000000000e-01 5.500000000000000e+00
1.000000000000000e+00 0.000000000000000e+00 5.500000000000000e+00
9.659258262890000e-01 2.588190451030000e-01 5.000000000000000e+00
8.660254037839999e-01 5.000000000000000e-01 5.250000000000000e+00
9.659258262890000e-01 2.588190451030000e-01 5.500000000000000e+00
1.000000000000000e+00 0.000000000000000e+00 5.250000000000000e+00
5.000000000000000e-01 8.660254037839999e-01 5.000000000000000e+00
0.000000000000000e+00 1.000000000000000e+00 5.000000000000000e+00
0.000000000000000e+00 1.000000000000000e+00 5.500000000000000e+00
5.000000000000000e-01 8.660254037839999e-01 5.500000000000000e+00
2.588190451030000e-01 9.659258262890000e-01 5.000000000000000e+00
0.000000000000000e+00 1.000000000000000e+00 5.250000000000000e+00
2.588190451030000e-01 9.659258262890000e-01 5.500000000000000e+00
5.000000000000000e-01 8.660254037839999e-01 5.250000000000000e+00
8.660254037839999e-01 5.000000000000000e-01 5.000000000000000e+00
5.000000000000000e-01 8.660254037839999e-01 5.000000000000000e+00
5.000000000000000e-01 8.660254037839999e-01 5.500000000000000e+00
8.660254037839999e-01 5.000000000000000e-01 5.500000000000000e+00
7.071067811870000e-01 7.071067811870000e-01 5.000000000000000e+00
5.000000000000000e-01 8.660254037839999e-01 5.250000000000000e+00
7.071067811870000e-01 7.071067811870000e-01 5.500000000000000e+00
8.660254037839999e-01 5.000000000000000e-01 5.250000000000000e+00
1.500000000000000e+00 3.000000000000000e-01 7.500000000000000e+00
1.500000000000000e+00 3.000000000000000e-01 8.000000000000000e+00
2.000000000000000e+00 3.000000000000000e-01 8.000000000000000e+00
2.000000000000000e+00 3.000000000000000e-01 7.500000000000000e+00
1.500000000000000e+00 3.000000000000000e-01 7.750000000000000e+00
1.750000000000000e+00 3.000000000000000e-01 8.000000000000000e+00
2.000000000000000e+00 3.000000000000000e-01 7.750000000000000e+00
1.750000000000000e+00 3.000000000000000e-01 7.500000000000000e+00
1.500000000000000e+00 3.000000000000000e-01 8.000000000000000e+00
1.500000000000000e+00 3.000000000000000e-01 8.500000000000000e+00
2.000000000000000e+00 3.000000000000000e-01 8.500000000000000e+00
2.000000000000000e+00 3.000000000000000e-01 8.000000000000000e+00
1.500000000000000e+00 3.000000000000000e-01 8.250000000000000e+00
1.750000000000000e+00 3.000000000000000e-01 8.500000000000000e+00
2.000000000000000e+00 3.000000000000000e-01 8.250000000000000e+00
1.750000000000000e+00 3.000000000000000e-01 8.000000000000000e+00
1.000000000000000e+00 3.000000000000000e-01 7.500000000000000e+00
1.000000000000000e+00 3.000000000000000e-01 8.000000000000000e+00
1.500000000000000e+00 3.000000000000000e-01 8.000000000000000e+00
1.500000000000000e+00 3.000000000000000e-01 7.500000000000000e+00
1.000000000000000e+00 3.000000000000000e-01 7.750000000000000e+00
1.250000000000000e+00 3.000000000000000e-01 8.000000000000000e+00
1.500000000000000e+00 3.000000000000000e-01 7.750000000000000e+00
1.250000000000000e+00 3.000000000000000e-01 7.500000000000000e+00
1.000000000000000e+00 3.000000000000000e-01 8.000000000000000e+00
1.000000000000000e+00 3.000000000000000e-01 8.500000000000000e+00
1.500000000000000e+00 3.000000000000000e-01 8.500000000000000e+00
1.500000000000000e+00 3.000000000000000e-01 8.000000000000000e+00
1.000000000000000e+00 3.000000000000000e-01 8.250000000000000e+00
1.250000000000000e+00 3.000000000000000e-01 8.500000000000000e+00
1.500000000000000e+00 3.000000000000000e-01 8.250000000000000e+00
1.250000000000000e+00 3.000000000000000e-01 8.000000000000000e+00
5.000000000000000e-01 3.000000000000000e-01 7.500000000000000e+00
5.000000000000000e-01 3.000000000000000e-01 8.000000000000000e+00
1.000000000000000e+00 3.000000000000000e-01 8.000000000000000e+00
1.000000000000000e+00 3.000000000000000e-01 7.500000000000000e+00
5.000000000000000e-01 3.000000000000000e-01 7.750000000000000e+00
7.500000000000000e-01 3.000000000000000e-01 8.000000000000000e+00
1.000000000000000e+00 3.000000000000000e-01 7.750000000000000e+00
7.500000000000000e-01 3.000000000000000e-01 7.500000000000000e+00
5.000000000000000e-01 3.000000000000000e-01 8.000000000000000e+00
5.000000000000000e-01 3.000000000000000e-01 8.500000000000000e+00
1.000000000000000e+00 3.000000000000000e-01 8.500000000000000e+00
1.000000000000000e+00 3.000000000000000e-01 8.000000000000000e+00
5.000000000000000e-01 3.000000000000000e-01 8.250000000000000e+00
7.500000000000000e-01 3.000000000000000e-01 8.500000000000000e+00
1.000000000000000e+00 3.000000000000000e-01 8.250000000000000e+00
7.500000000000000e-01 3.000000000000000e-01 8.000000000000000e+00
0.000000000000000e+00 3.000000000000000e-01 7.500000000000000e+00
0.000000000000000e+00 3.000000000000000e-01 8.000000000000000e+00
5.000000000000000e-01 3.000000000000000e-01 8.000000000000000e+00
5.000000000000000e-01 3.000000000000000e-01 7.500000000000000e+00
0.000000000000000e+00 3.000000000000000e-01 7.750000000000000e+00
2.500000000000000e-01 3.000000000000000e-01 8.000000000000000e+00
5.000000000000000e-01 3.000000000000000e-01 7.750000000000000e+00
2.500000000000000e-01 3.000000000000000e-01 7.500000000000000e+00
0.000000000000000e+00 3.000000000000000e-01 8.000000000000000e+00
0.000000000000000e+00 3.000000000000000e-01 8.500000000000000e+00
5.000000000000000e-01 3.000000000000000e-01 8.500000000000000e+00
5.000000000000000e-01 3.000000000000000e-01 8.000000000000000e+00
0.000000000000000e+00 3.000000000000000e-01 8.250000000000000e+00
2.500000000000000e-01 3.000000000000000e-01 8.500000000000000e+00
5.000000000000000e-01 3.000000000000000e-01 8.250000000000000e+00
2.500000000000000e-01 3.000000000000000e-01 8.000000000000000e+00
        </DataArray>
      </Points>

      <Cells>
        <DataArray type="Int32" Name="connectivity" format="ascii">

        </DataArray>
        <DataArray type="Int32" Name="offsets" format="ascii">

        </DataArray>
        <DataArray type="UInt8" Name="types" format="ascii">

        </DataArray>
      </Cells>

  <PointData>
        <DataArray type="Int32" Name="coupling_id" format="ascii">
1
1
1
1
1
1
1
1
1
1
1
1
1
1
1
1
1
1
1
1
1
1
1
1
1
1
1
1
1
1
1
1
1
1
1
1
2
2
2
2
2
2
2
2
2
2
2
2
2
2
2
2
2
2
2
2
2
2
2
2
2
2
2
2
2
2
2
2
3
3
3
3
3
3
3
3
3
3
3
3
3
3
3
3
3
3
3
3
3
3
3
3
3
3
3
3
3
3
3
3
3
3
3
3
3
3
3
3
3
3
3
3
3
3
3
3
3
3
3
3
3
3
3
3
3
3
3
3
3
3
3
3
3
3
3
3
3
3
3
3
4
4
4
4
4
4
4
4
4
4
4
4
4
4
4
4
4
4
4
4
4
4
4
4
4
4
4
4
4
4
4
4
4
4
4
4
4
4
4
4
4
4
4
4
4
4
4
4
4
4
4
4
4
4
4
4
4
4
4
4
4
4
4
4
        </DataArray>
        <DataArray type="Float64" Name="displacement" NumberOfComponents="3" format="ascii">
7.995941375572579e-04 4.107554588873352e-03 -4.790525805401513e-03
0.000000000000000e+00 0.000000000000000e+00 0.000000000000000e+00
0.000000000000000e+00 0.000000000000000e+00 0.000000000000000e+00
-8.249535490553572e-03 4.828336171928238e-03 -1.034182166808695e-02
3.804991339908637e-02 4.658538279355131e-02 1.684567720180485e-02
1.613534331768551e-02 4.390429064810408e-02 -4.261252298330187e-03
2.798237140233539e-02 6.847075276351544e-02 -5.315161862615270e-03
5.665649417925356e-02 8.035224387450712e-02 1.785043926350993e-02
5.117642603916894e-03 6.295571753747731e-03 -4.845219667645673e-03
7.995941375572579e-04 4.107554588873352e-03 -4.790525805401513e-03
-8.249535490553572e-03 4.828336171928238e-03 -1.034182166808695e-02
1.613534331768551e-02 4.390429064810408e-02 -4.261252298330187e-03
1.285540360433490e-02 7.011522251570718e-03 1.728089895531559e-02
5.117642603916894e-03 6.295571753747731e-03 -4.845219667645673e-03
1.613534331768551e-02 4.390429064810408e-02 -4.261252298330187e-03
3.804991339908637e-02 4.658538279355131e-02 1.684567720180485e-02
8.378991508189992e-04 -1.379572591131262e-02 -5.522690394429547e-03
0.000000000000000e+00 0.000000000000000e+00 0.000000000000000e+00
0.000000000000000e+00 0.000000000000000e+00 0.000000000000000e+00
7.995941375572579e-04 4.107554588873352e-03 -4.790525805401513e-03
-1.185623257939672e-02 -2.496334025103913e-02 -4.695161016927501e-03
8.378991508189992e-04 -1.379572591131262e-02 -5.522690394429547e-03
7.995941375572579e-04 4.107554588873352e-03 -4.790525805401513e-03
5.117642603916894e-03 6.295571753747731e-03 -4.845219667645673e-03
4.940925038528166e-03 -7.204593903895392e-03 1.375174454156061e-02
-1.185623257939672e-02 -2.496334025103913e-02 -4.695161016927501e-03
5.117642603916894e-03 6.295571753747731e-03 -4.845219667645673e-03
1.285540360433490e-02 7.011522251570718e-03 1.728089895531559e-02
1.613534331768551e-02 4.390429064810408e-02 -4.261252298330187e-03
-8.249535490553572e-03 4.828336171928238e-03 -1.034182166808695e-02
8.769053173271812e-03 6.600039796583923e-02 -1.734149672741725e-02
2.798237140233539e-02 6.847075276351544e-02 -5.315161862615270e-03
-8.249535490553572e-03 4.828336171928238e-03 -1.034182166808695e-02
0.000000000000000e+00 0.000000000000000e+00 0.000000000000000e+00
0.000000000000000e+00 0.000000000000000e+00 0.000000000000000e+00
8.769053173271812e-03 6.600039796583923e-02 -1.734149672741725e-02
2.220446049250313e-16 5.551115123125783e-17 4.440892098500626e-16
-5.551115123125783e-17 -5.551115123125783e-17 0.000000000000000e+00
0.000000000000000e+00 7.771561172376096e-16 -4.440892098500626e-16
-4.440892098500626e-16 -5.551115123125783e-17 -1.332267629550188e-15
0.000000000000000e+00 0.000000000000000e+00 0.000000000000000e+00
0.000000000000000e+00 0.000000000000000e+00 0.000000000000000e+00
2.220446049250313e-16 5.551115123125783e-17 4.440892098500626e-16
-2.775557561562891e-16 -1.110223024625157e-16 -4.440892098500626e-16
0.000000000000000e+00 0.000000000000000e+00 0.000000000000000e+00
0.000000000000000e+00 0.000000000000000e+00 0.000000000000000e+00
-5.551115123125783e-17 -5.551115123125783e-17 0.000000000000000e+00
2.220446049250313e-16 5.551115123125783e-17 4.440892098500626e-16
0.000000000000000e+00 -3.885780586188048e-16 -4.440892098500626e-16
-4.440892098500626e-16 -5.551115123125783e-17 -1.332267629550188e-15
-2.220446049250313e-16 6.106226635438361e-16 -8.881784197001252e-16
0.000000000000000e+00 -6.661338147750939e-16 -1.332267629550188e-15
-4.440892098500626e-16 -5.551115123125783e-17 -1.332267629550188e-15
0.000000000000000e+00 7.771561172376096e-16 -4.440892098500626e-16
4.440892098500626e-16 9.436895709313831e-16 0.000000000000000e+00
-2.220446049250313e-16 6.106226635438361e-16 -8.881784197001252e-16
-2.775557561562891e-16 -1.110223024625157e-16 -4.440892098500626e-16
2.220446049250313e-16 5.551115123125783e-17 4.440892098500626e-16
-4.440892098500626e-16 -5.551115123125783e-17 -1.332267629550188e-15
0.000000000000000e+00 -3.885780586188048e-16 -4.440892098500626e-16
-2.220446049250313e-16 6.106226635438361e-16 -8.881784197001252e-16
4.440892098500626e-16 9.436895709313831e-16 0.000000000000000e+00
0.000000000000000e+00 1.443289932012704e-15 -1.776356839400250e-15
0.000000000000000e+00 6.661338147750939e-16 -8.881784197001252e-16
0.000000000000000e+00 -6.661338147750939e-16 -1.332267629550188e-15
-2.220446049250313e-16 6.106226635438361e-16 -8.881784197001252e-16
0.000000000000000e+00 6.661338147750939e-16 -8.881784197001252e-16
-2.220446049250313e-16 1.110223024625157e-16 -8.881784197001252e-16
-2.030743950476310e-04 -3.747111772776091e-04 8.243641000049706e-06
0.000000000000000e+00 0.000000000000000e+00 0.000000000000000e+00
0.000000000000000e+00 0.000000000000000e+00 0.000000000000000e+00
-2.678255536542329e-05 -2.313828936026940e-04 -6.116782346499150e-05
-9.456950698955024e-05 -3.106957496434859e-04 1.520028171064780e-05
0.000000000000000e+00 0.000000000000000e+00 0.000000000000000e+00
4.433501607775669e-05 -1.669225631310001e-04 1.715188972362114e-05
-1.771131418767946e-04 -3.955148828050925e-04 -3.625242464888601e-05
1.169920734503949e-04 5.395504950511665e-05 3.160067701646341e-05
-2.030743950476310e-04 -3.747111772776091e-04 8.243641000049706e-06
-2.678255536542329e-05 -2.313828936026940e-04 -6.116782346499150e-05
-6.791809630302126e-05 -2.432755348534821e-04 1.591287654090223e-05
5.169381694292152e-05 4.574167892168468e-05 1.199383909771257e-04
-1.771131418767946e-04 -3.955148828050925e-04 -3.625242464888601e-05
-1.343889667095866e-04 -2.966431165709604e-04 4.183764363840936e-05
1.632054861444576e-05 -9.608595241061835e-05 2.736751159382322e-05
1.854805681966720e-04 9.668493072266716e-05 -2.727498407697482e-04
1.169920734503949e-04 5.395504950511665e-05 3.160067701646341e-05
-6.791809630302126e-05 -2.432755348534821e-04 1.591287654090223e-05
9.193839238741397e-05 -2.219427673374239e-04 -2.655561893023517e-04
1.551530539349866e-04 6.913368560662603e-05 -1.197131933414752e-04
1.632054861444576e-05 -9.608595241061835e-05 2.736751159382322e-05
1.700778281099602e-05 -2.127950305935156e-04 -1.018341920770993e-04
1.535601865803038e-04 -5.351804635776370e-05 -2.623602649149959e-04
-1.742186743958207e-05 2.284631973198392e-04 2.113729351549409e-06
0.000000000000000e+00 0.000000000000000e+00 0.000000000000000e+00
0.000000000000000e+00 0.000000000000000e+00 0.000000000000000e+00
-2.030743950476310e-04 -3.747111772776091e-04 8.243641000049706e-06
-5.137452133574527e-05 7.579145940750376e-05 2.686905485926872e-05
0.000000000000000e+00 0.000000000000000e+00 0.000000000000000e+00
-9.456950698955024e-05 -3.106957496434859e-04 1.520028171064780e-05
2.200259108375846e-05 1.394070121256696e-04 6.096566399005354e-05
-4.498905373795381e-06 2.545785195402495e-04 -5.762092428973631e-06
-1.742186743958207e-05 2.284631973198392e-04 2.113729351549409e-06
-2.030743950476310e-04 -3.747111772776091e-04 8.243641000049706e-06
1.169920734503949e-04 5.395504950511665e-05 3.160067701646341e-05
1.633178184442530e-04 4.340438603367414e-04 9.924733105570738e-06
2.200259108375846e-05 1.394070121256696e-04 6.096566399005354e-05
5.169381694292152e-05 4.574167892168468e-05 1.199383909771257e-04
2.236657753404980e-04 2.948309425331308e-04 -2.784771398367525e-06
2.281471687866077e-04 3.161702052263268e-04 -1.639583356203289e-04
-4.498905373795381e-06 2.545785195402495e-04 -5.762092428973631e-06
1.169920734503949e-04 5.395504950511665e-05 3.160067701646341e-05
1.854805681966720e-04 9.668493072266716e-05 -2.727498407697482e-04
8.621574960832046e-05 2.537098663824566e-04 -1.030224436773253e-04
2.236657753404980e-04 2.948309425331308e-04 -2.784771398367525e-06
1.551530539349866e-04 6.913368560662603e-05 -1.197131933414752e-04
1.403222482667665e-04 1.693207050387439e-04 -2.415358159062464e-04
1.296630300107182e-03 1.212409627363109e-03 -1.920495608871420e-04
2.042073705122993e-04 5.181212338847274e-04 7.487281159868076e-05
-4.498905373795381e-06 2.545785195402495e-04 -5.762092428973631e-06
2.281471687866077e-04 3.161702052263268e-04 -1.639583356203289e-04
5.365283886885619e-04 8.349435506393998e-04 7.928073788576739e-05
-4.144457765198339e-06 2.789838549387413e-04 3.331981697218822e-05
8.621574960832046e-05 2.537098663824566e-04 -1.030224436773253e-04
5.261222007730826e-04 5.584544087522584e-04 -1.535178212215271e-04
-2.588237478579059e-05 2.310280633180950e-04 -4.384949438218655e-06
0.000000000000000e+00 0.000000000000000e+00 0.000000000000000e+00
0.000000000000000e+00 0.000000000000000e+00 0.000000000000000e+00
-1.742186743958207e-05 2.284631973198392e-04 2.113729351549409e-06
-4.900762145487736e-05 9.933232310499474e-05 -2.033781560939474e-06
0.000000000000000e+00 0.000000000000000e+00 0.000000000000000e+00
-5.137452133574527e-05 7.579145940750376e-05 2.686905485926872e-05
-1.367206497904228e-05 2.349050954197907e-04 -1.629896724963942e-05
2.042073705122993e-04 5.181212338847274e-04 7.487281159868076e-05
-2.588237478579059e-05 2.310280633180950e-04 -4.384949438218655e-06
-1.742186743958207e-05 2.284631973198392e-04 2.113729351549409e-06
-4.498905373795381e-06 2.545785195402495e-04 -5.762092428973631e-06
4.501924848043792e-05 3.168966594646605e-04 -1.029170940114454e-05
-1.367206497904228e-05 2.349050954197907e-04 -1.629896724963942e-05
1.633178184442530e-04 4.340438603367414e-04 9.924733105570738e-06
-4.144457765198339e-06 2.789838549387413e-04 3.331981697218822e-05
0.000000000000000e+00 1.720845688168993e-15 0.000000000000000e+00
2.220446049250313e-16 8.881784197001252e-16 1.776356839400250e-15
4.440892098500626e-16 5.551115123125783e-17 1.776356839400250e-15
0.000000000000000e+00 2.109423746787797e-15 8.881784197001252e-16
0.000000000000000e+00 1.332267629550188e-15 8.881784197001252e-16
0.000000000000000e+00 5.551115123125783e-16 1.776356839400250e-15
0.000000000000000e+00 1.221245327087672e-15 8.881784197001252e-16
0.000000000000000e+00 2.053912595556540e-15 8.881784197001252e-16
2.220446049250313e-16 8.881784197001252e-16 1.776356839400250e-15
6.661338147750939e-16 -2.053912595556540e-15 3.552713678800501e-15
-2.220446049250313e-16 -5.551115123125783e-17 -3.552713678800501e-15
4.440892098500626e-16 5.551115123125783e-17 1.776356839400250e-15
1.110223024625157e-15 1.665334536937735e-16 3.552713678800501e-15
4.440892098500626e-16 -1.887379141862766e-15 1.776356839400250e-15
-2.220446049250313e-16 -7.771561172376096e-16 0.000000000000000e+00
0.000000000000000e+00 5.551115123125783e-16 1.776356839400250e-15
-3.330669073875470e-16 1.276756478318930e-15 0.000000000000000e+00
-7.771561172376096e-16 4.996003610813204e-16 -1.776356839400250e-15
2.220446049250313e-16 8.881784197001252e-16 1.776356839400250e-15
0.000000000000000e+00 1.720845688168993e-15 0.000000000000000e+00
-3.330669073875470e-16 6.661338147750939e-16 0.000000000000000e+00
-2.220446049250313e-16 7.216449660063518e-16 -8.881784197001252e-16
0.000000000000000e+00 1.332267629550188e-15 8.881784197001252e-16
0.000000000000000e+00 1.387778780781446e-15 0.000000000000000e+00
-7.771561172376096e-16 4.996003610813204e-16 -1.776356839400250e-15
2.220446049250313e-16 7.771561172376096e-16 0.000000000000000e+00
6.661338147750939e-16 -2.053912595556540e-15 3.552713678800501e-15
2.220446049250313e-16 8.881784197001252e-16 1.776356839400250e-15
0.000000000000000e+00 6.661338147750939e-16 0.000000000000000e+00
2.220446049250313e-16 -1.665334536937735e-16 0.000000000000000e+00
1.110223024625157e-15 1.665334536937735e-16 3.552713678800501e-15
-2.220446049250313e-16 7.216449660063518e-16 -8.881784197001252e-16
-5.551115123125783e-17 9.992007221626409e-16 8.881784197001252e-16
-2.220446049250313e-16 5.551115123125783e-17 0.000000000000000e+00
-7.771561172376096e-16 4.996003610813204e-16 -1.776356839400250e-15
-3.330669073875470e-16 1.276756478318930e-15 0.000000000000000e+00
-3.885780586188048e-16 6.106226635438361e-16 1.776356839400250e-15
-4.440892098500626e-16 2.775557561562891e-16 0.000000000000000e+00
-3.330669073875470e-16 6.661338147750939e-16 0.000000000000000e+00
-3.330669073875470e-16 1.332267629550188e-15 8.881784197001252e-16
-2.220446049250313e-16 5.551115123125783e-17 0.000000000000000e+00
-5.551115123125783e-17 2.220446049250313e-16 0.000000000000000e+00
2.220446049250313e-16 7.771561172376096e-16 0.000000000000000e+00
-7.771561172376096e-16 4.996003610813204e-16 -1.776356839400250e-15
-1.665334536937735e-16 5.551115123125783e-17 0.000000000000000e+00
0.000000000000000e+00 5.551115123125783e-16 0.000000000000000e+00
0.000000000000000e+00 6.661338147750939e-16 0.000000000000000e+00
-4.440892098500626e-16 2.775557561562891e-16 0.000000000000000e+00
0.000000000000000e+00 0.000000000000000e+00 0.000000000000000e+00
0.000000000000000e+00 0.000000000000000e+00 0.000000000000000e+00
-2.220446049250313e-16 5.551115123125783e-17 0.000000000000000e+00
-5.551115123125783e-17 9.992007221626409e-16 8.881784197001252e-16
0.000000000000000e+00 0.000000000000000e+00 0.000000000000000e+00
-1.387778780781446e-16 1.665334536937735e-16 0.000000000000000e+00
-3.885780586188048e-16 6.106226635438361e-16 1.776356839400250e-15
1.110223024625157e-16 -2.220446049250313e-16 -8.881784197001252e-16
0.000000000000000e+00 0.000000000000000e+00 0.000000000000000e+00
0.000000000000000e+00 0.000000000000000e+00 0.000000000000000e+00
-5.551115123125783e-17 2.220446049250313e-16 0.000000000000000e+00
-2.220446049250313e-16 5.551115123125783e-17 0.000000000000000e+00
0.000000000000000e+00 0.000000000000000e+00 0.000000000000000e+00
-2.775557561562891e-17 0.000000000000000e+00 0.000000000000000e+00
-1.665334536937735e-16 5.551115123125783e-17 0.000000000000000e+00
-1.387778780781446e-16 1.665334536937735e-16 0.000000000000000e+00
        </DataArray>
        <DataArray type="Float64" Name="normal_averaged" NumberOfComponents="3" format="ascii">
0.000000000000000e+00 0.000000000000000e+00 0.000000000000000e+00
0.000000000000000e+00 0.000000000000000e+00 0.000000000000000e+00
0.000000000000000e+00 0.000000000000000e+00 0.000000000000000e+00
0.000000000000000e+00 0.000000000000000e+00 0.000000000000000e+00
0.000000000000000e+00 0.000000000000000e+00 0.000000000000000e+00
0.000000000000000e+00 0.000000000000000e+00 0.000000000000000e+00
0.000000000000000e+00 0.000000000000000e+00 0.000000000000000e+00
0.000000000000000e+00 0.000000000000000e+00 0.000000000000000e+00
0.000000000000000e+00 0.000000000000000e+00 0.000000000000000e+00
0.000000000000000e+00 0.000000000000000e+00 0.000000000000000e+00
0.000000000000000e+00 0.000000000000000e+00 0.000000000000000e+00
0.000000000000000e+00 0.000000000000000e+00 0.000000000000000e+00
0.000000000000000e+00 0.000000000000000e+00 0.000000000000000e+00
0.000000000000000e+00 0.000000000000000e+00 0.000000000000000e+00
0.000000000000000e+00 0.000000000000000e+00 0.000000000000000e+00
0.000000000000000e+00 0.000000000000000e+00 0.000000000000000e+00
0.000000000000000e+00 0.000000000000000e+00 0.000000000000000e+00
0.000000000000000e+00 0.000000000000000e+00 0.000000000000000e+00
0.000000000000000e+00 0.000000000000000e+00 0.000000000000000e+00
0.000000000000000e+00 0.000000000000000e+00 0.000000000000000e+00