<?xml version="1.0" ?> 
<!-- 
# vtk DataFile Version 3.0
-->
<VTKFile type="UnstructuredGrid" version="0.1" compressor="vtkZLibDataCompressor" byte_order="LittleEndian">
  <UnstructuredGrid>
    <FieldData>
      <DataArray type="Float64" Name="TIME" NumberOfTuples="1" format="ascii">
3.000000000000000e+00 
      </DataArray>
    </FieldData>

    <Piece NumberOfPoints="48" NumberOfCells="0" >
      <Points>
        <DataArray type="Float64" NumberOfComponents="3" format="ascii">
9.973931072023358e-01 7.070273513256649e-02 -6.938893903907228e-17
8.653443956098170e-01 4.996068197473149e-01 4.527204716394889e-01
8.653443956098172e-01 4.996068197473150e-01 4.527204716394889e-01
8.408972616915399e-01 5.400395384249512e-01 4.999999999999999e-01
8.408972616915398e-01 5.400395384249512e-01 5.000000000000000e-01
7.071067811870000e-01 7.071067811870000e-01 7.146018366030000e-01
4.790802794582723e-01 8.767986476933661e-01 1.000000000000000e+00
0.000000000000000e+00 1.000000000000000e+00 1.500000000000000e+00
7.071067811870000e-01 7.071067811870000e-01 7.146018366030000e-01
4.996068197465065e-01 8.653443956084170e-01 9.764832015661983e-01
4.996068197465066e-01 8.653443956084170e-01 9.764832015661981e-01
4.790802794582723e-01 8.767986476933661e-01 1.000000000000000e+00
4.999999999999999e-01 3.000000000000000e-01 2.709523809523774e+00
9.999999999999997e-01 3.000000000000000e-01 2.971428571428627e+00
1.054545454545373e+00 3.000000000000000e-01 3.000000000000000e+00
1.150000000000000e+00 3.000000000000000e-01 3.050000000000000e+00
9.999999999999997e-01 3.000000000000000e-01 2.971428571428627e+00
1.054545454545372e+00 3.000000000000000e-01 3.000000000000000e+00
1.000000000000000e-01 3.000000000000000e-01 2.500000000000000e+00
4.999999999999999e-01 3.000000000000000e-01 2.709523809523774e+00
1.500000000000000e+00 3.000000000000000e-01 3.233333333333286e+00
2.000000000000000e+00 2.999999999999999e-01 3.495238095238156e+00
1.150000000000000e+00 3.000000000000000e-01 3.050000000000000e+00
1.500000000000000e+00 3.000000000000000e-01 3.233333333333286e+00
8.653443956095521e-01 4.996068197471640e-01 5.452720471638520e+00
8.408972616904899e-01 5.400395384261462e-01 5.499999999999999e+00
9.973931072026408e-01 7.070273512785316e-02 4.999999999999999e+00
8.653443956095521e-01 4.996068197471640e-01 5.452720471638520e+00
8.408972616904897e-01 5.400395384261465e-01 5.500000000000000e+00
7.071067811870000e-01 7.071067811870000e-01 5.714601836600000e+00
7.071067811870000e-01 7.071067811870000e-01 5.714601836600000e+00
4.996068197465660e-01 8.653443956085165e-01 5.976483201563967e+00
4.996068197465658e-01 8.653443956085164e-01 5.976483201563967e+00
4.790802794564825e-01 8.767986476944808e-01 5.999999999999999e+00
4.790802794564826e-01 8.767986476944806e-01 6.000000000000000e+00
0.000000000000000e+00 1.000000000000000e+00 6.500000000000000e+00
1.000000000000000e-01 3.000000000000000e-01 7.500000000000000e+00
5.000000000000000e-01 3.000000000000000e-01 7.709523809523774e+00
5.000000000000000e-01 3.000000000000000e-01 7.709523809523774e+00
1.000000000000000e+00 3.000000000000000e-01 7.971428571428629e+00
1.054545454545368e+00 2.999999999999999e-01 7.999999999999998e+00
1.150000000000000e+00 3.000000000000000e-01 8.050000000000001e+00
1.000000000000000e+00 3.000000000000000e-01 7.971428571428629e+00
1.054545454545370e+00 3.000000000000000e-01 8.000000000000000e+00
1.150000000000000e+00 3.000000000000000e-01 8.050000000000001e+00
1.500000000000000e+00 3.000000000000000e-01 8.233333333333286e+00
1.500000000000000e+00 3.000000000000000e-01 8.233333333333286e+00
2.000000000000000e+00 3.000000000000000e-01 8.495238095238156e+00
        </DataArray>
      </Points>

      <Cells>
        <DataArray type="Int32" Name="connectivity" format="ascii">

        </DataArray>
        <DataArray type="Int32" Name="offsets" format="ascii">

        </DataArray>
        <DataArray type="UInt8" Name="types" format="ascii">

        </DataArray>
      </Cells>

  <PointData>
        <DataArray type="Float64" Name="displacement" NumberOfComponents="3" format="ascii">
2.707615691049926e-01 2.561153719977824e-01 2.827427060558616e-02
5.004149823280390e-02 1.412473339815752e-01 -2.576480884772248e-03
5.004149823280368e-02 1.412473339815751e-01 -2.576480884772137e-03
3.798421203558244e-02 1.289004467635778e-01 -3.209907930154299e-03
3.798421203558267e-02 1.289004467635779e-01 -3.209907930154410e-03
-1.531404282810289e-03 7.756542485352680e-02 -6.744620974829862e-03
-2.161505071187775e-02 2.403731839028045e-02 -8.817904435022839e-03
0.000000000000000e+00 0.000000000000000e+00 0.000000000000000e+00
-1.531404282810289e-03 7.756542485352680e-02 -6.744620974829862e-03
-2.127734533673337e-02 2.771071813736803e-02 -9.017938587441598e-03
-2.127734533673337e-02 2.771071813736803e-02 -9.017938587441821e-03
-2.161505071187780e-02 2.403731839028045e-02 -8.817904435022839e-03
-1.483646023484936e-02 4.197706054936967e-02 3.819924531525576e-03
-5.888008628896535e-02 1.951588812431533e-01 1.659396798927748e-02
-6.548085063965081e-02 2.176447320393375e-01 1.749558604811607e-02
-7.790880589206783e-02 2.594081436903522e-01 1.850868867794908e-02
-5.888008628896535e-02 1.951588812431533e-01 1.659396798927748e-02
-6.548085063965070e-02 2.176447320393371e-01 1.749558604811607e-02
0.000000000000000e+00 0.000000000000000e+00 0.000000000000000e+00
-1.483646023484925e-02 4.197706054936967e-02 3.819924531525576e-03
-1.268980300668978e-01 4.309708536956848e-01 1.521910758389522e-02
-2.169550886461988e-01 7.336208797175116e-01 -1.124579406172588e-02
-7.790880589206783e-02 2.594081436903522e-01 1.850868867794908e-02
-1.268980300668980e-01 4.309708536956849e-01 1.521910758389478e-02
8.029953512646504e-02 1.987811949687132e-01 -1.986630309183113e-03
6.506119163460689e-02 1.838122077535738e-01 -3.249493836398720e-03
3.457038900725583e-01 3.504379342118005e-01 3.770033594689970e-02
8.029953512646504e-02 1.987811949687132e-01 -1.986630309183113e-03
6.506119163460677e-02 1.838122077535738e-01 -3.249493836398720e-03
1.572029743769221e-02 1.181854818329201e-01 -5.838122888502717e-03
1.572029743769221e-02 1.181854818329201e-01 -5.838122888502717e-03
-9.099395894165474e-03 5.310989834275026e-02 -4.074611030924657e-03
-9.099395894165530e-03 5.310989834275026e-02 -4.074611030925546e-03
-9.786192110926684e-03 4.850741270958481e-02 -3.717601243399038e-03
-9.786192110926517e-03 4.850741270958492e-02 -3.717601243399038e-03
0.000000000000000e+00 0.000000000000000e+00 0.000000000000000e+00
0.000000000000000e+00 0.000000000000000e+00 0.000000000000000e+00
-3.072814286595504e-02 6.908460505016550e-02 1.067823224941300e-02
-3.072814286595504e-02 6.908460505016550e-02 1.067823224941300e-02
-1.172298896964004e-01 2.953780998624190e-01 4.096742836922385e-02
-1.289704341470570e-01 3.254694993318681e-01 4.359869416796336e-02
-1.503076804456983e-01 3.793980746713430e-01 4.730083356017900e-02
-1.172298896964004e-01 2.953780998624190e-01 4.096742836922385e-02
-1.289704341470572e-01 3.254694993318691e-01 4.359869416796336e-02
-1.503076804456983e-01 3.793980746713430e-01 4.730083356017900e-02
-2.381296924676248e-01 6.004992057152521e-01 4.883833276285543e-02
-2.381296924676251e-01 6.004992057152516e-01 4.883833276285365e-02
-3.942251691195435e-01 9.810417652177568e-01 1.815444492377338e-02
        </DataArray>
        <DataArray type="Float64" Name="projection_direction" NumberOfComponents="3" format="ascii">
5.120442330026620e-03 1.406235252260463e-02 -5.276504852233178e-03
1.065566520456174e-02 1.495873838903294e-02 -2.433928996472934e-03
1.065566520456163e-02 1.495873838903283e-02 -2.433928996472934e-03
4.337836826726171e-03 9.756871129560141e-03 -2.477274651368266e-03
4.337836826725949e-03 9.756871129560141e-03 -2.477274651368211e-03
-3.324753442234707e-03 -5.876617415759289e-03 5.492940363551746e-04
2.055853767357618e-03 6.909171423430283e-03 -5.995394421481892e-04
0.000000000000000e+00 0.000000000000000e+00 0.000000000000000e+00
-3.324753442234707e-03 -5.876617415759289e-03 5.492940363551746e-04
4.175209181913497e-03 1.072519096308522e-02 -7.688185667774627e-04
4.175209181913331e-03 1.072519096308533e-02 -7.688185667771297e-04
2.055853767357674e-03 6.909171423430283e-03 -5.995394421481892e-04
1.108243053027758e-03 -9.926073400587876e-03 -1.939745396783543e-03
5.657539689601920e-04 -3.079576692436303e-03 1.124563318626759e-03
2.702735985019578e-04 -1.404456148913602e-03 3.479720108061635e-04
2.580554435605009e-05 -2.972468112910631e-04 -5.861014885826243e-04
5.657539689601920e-04 -3.079576692436303e-03 1.124563318627203e-03
2.702735985019578e-04 -1.404456148913491e-03 3.479720108066076e-04
-5.201933010464538e-04 1.833890791698045e-03 6.813529529603457e-05
1.108243053027591e-03 -9.926073400587931e-03 -1.939745396783987e-03
8.567929744540681e-04 -1.992651655507549e-03 1.324001712263545e-03
2.248256907624757e-03 -2.900285108764278e-03 1.026968634382452e-03
2.580554435605009e-05 -2.972468112910631e-04 -5.861014885826243e-04
8.567929744538461e-04 -1.992651655507549e-03 1.324001712263989e-03
-2.879141366143423e-03 -2.415656990441106e-03 -3.207624288270594e-03
-3.460098730294625e-03 -3.389892993965415e-03 -3.032909153642294e-03
-7.939587825481320e-03 -5.832605090724086e-03 -3.690096335968285e-03
-2.879141366143534e-03 -2.415656990441106e-03 -3.207624288270594e-03
-3.460098730294514e-03 -3.389892993965749e-03 -3.032909153643182e-03
6.814773596715007e-04 5.509190109550532e-04 7.890914991852682e-04
6.814773596715007e-04 5.509190109550532e-04 7.890914991852682e-04
-7.388707027438102e-04 -5.192029587086644e-05 -1.541786264871448e-04
-7.388707027435881e-04 -5.192029587075542e-05 -1.541786264862566e-04
-9.501986487763237e-04 -5.463257989888337e-04 -1.822907731012791e-04
-9.501986487763792e-04 -5.463257989887227e-04 -1.822907731012791e-04
0.000000000000000e+00 0.000000000000000e+00 8.881784197001252e-16
-4.094810208475769e-04 -2.461547490191895e-03 -8.343935543830838e-04
8.973230033691437e-04 1.575277069050807e-03 4.091242117771898e-04
8.973230033691437e-04 1.575277069050807e-03 4.091242117771898e-04
7.482117874602068e-06 -9.762753313294903e-04 2.064344112664429e-04
6.560105126690585e-04 3.190459712187899e-05 4.555581837735190e-04
5.307355270489644e-05 6.124812875345498e-04 -6.138698212154736e-05
7.482117874491045e-06 -9.762753313293793e-04 2.064344112664429e-04
6.560105126689475e-04 3.190459712154592e-05 4.555581837717426e-04
5.307355270489644e-05 6.124812875345498e-04 -6.138698212154736e-05
9.389281977019159e-04 -5.075344697600404e-04 7.792663773074082e-04
9.389281977023600e-04 -5.075344697595963e-04 7.792663773091846e-04
1.508942238120925e-03 6.763927664332758e-04 4.567978974900910e-04
        </DataArray>
        <DataArray type="Int32" Name="uid_0_pair_beam_id" format="ascii">
267
267
267
267
267
267
268
268
268
268
268
268
269
269
269
269
269
269
269
269
270
270
270
270
271
271
271
271
271
271
272
272
272
272
272
272
273
273
273
273
273
273
273
273
274
274
274
274
        </DataArray>
        <DataArray type="Int32" Name="uid_1_pair_solid_id" format="ascii">
0
0
1
1
4
4
8
8
4
4
5
5
12
12
13
13
14
14
10
10
15
15
13
13
18
18
17
17
21
21
21
21
22
22
25
25
27
27
29
29
30
30
31
31
30
30
32
32
        </DataArray>
      </PointData>

    </Piece>
  </UnstructuredGrid>
</VTKFile>
