<?xml version="1.0" ?> 
<!-- 
# vtk DataFile Version 3.0
-->
<VTKFile type="UnstructuredGrid" version="0.1" compressor="vtkZLibDataCompressor" byte_order="LittleEndian">
  <UnstructuredGrid>
    <FieldData>
      <DataArray type="Float64" Name="TIME" NumberOfTuples="1" format="ascii">
3.000000000000000e+00 
      </DataArray>
    </FieldData>

    <Piece NumberOfPoints="207" NumberOfCells="0" >
      <Points>
        <DataArray type="Float64" NumberOfComponents="3" format="ascii">
8.660254037839999e-01 5.000000000000000e-01 1.100000000000000e+01
5.000000000000000e-01 8.660254037839999e-01 1.100000000000000e+01
5.000000000000000e-01 8.660254037839999e-01 1.150000000000000e+01
8.660254037839999e-01 5.000000000000000e-01 1.150000000000000e+01
7.071067811870000e-01 7.071067811870000e-01 1.100000000000000e+01
5.000000000000000e-01 8.660254037839999e-01 1.125000000000000e+01
7.071067811870000e-01 7.071067811870000e-01 1.150000000000000e+01
8.660254037839999e-01 5.000000000000000e-01 1.125000000000000e+01
7.071067811870000e-01 7.071067811870000e-01 1.125000000000000e+01
5.000000000000000e-01 8.660254037839999e-01 1.100000000000000e+01
0.000000000000000e+00 1.000000000000000e+00 1.100000000000000e+01
0.000000000000000e+00 1.000000000000000e+00 1.150000000000000e+01
5.000000000000000e-01 8.660254037839999e-01 1.150000000000000e+01
2.588190451030000e-01 9.659258262890000e-01 1.100000000000000e+01
0.000000000000000e+00 1.000000000000000e+00 1.125000000000000e+01
2.588190451030000e-01 9.659258262890000e-01 1.150000000000000e+01
5.000000000000000e-01 8.660254037839999e-01 1.125000000000000e+01
2.588190451030000e-01 9.659258262890000e-01 1.125000000000000e+01
1.000000000000000e+00 0.000000000000000e+00 1.100000000000000e+01
8.660254037839999e-01 5.000000000000000e-01 1.100000000000000e+01
8.660254037839999e-01 5.000000000000000e-01 1.150000000000000e+01
1.000000000000000e+00 0.000000000000000e+00 1.150000000000000e+01
9.659258262890000e-01 2.588190451030000e-01 1.100000000000000e+01
8.660254037839999e-01 5.000000000000000e-01 1.125000000000000e+01
9.659258262890000e-01 2.588190451030000e-01 1.150000000000000e+01
1.000000000000000e+00 0.000000000000000e+00 1.125000000000000e+01
9.659258262890000e-01 2.588190451030000e-01 1.125000000000000e+01
5.000000000000000e-01 8.660254037839999e-01 1.050000000000000e+01
0.000000000000000e+00 1.000000000000000e+00 1.050000000000000e+01
0.000000000000000e+00 1.000000000000000e+00 1.100000000000000e+01
5.000000000000000e-01 8.660254037839999e-01 1.100000000000000e+01
2.588190451030000e-01 9.659258262890000e-01 1.050000000000000e+01
0.000000000000000e+00 1.000000000000000e+00 1.075000000000000e+01
2.588190451030000e-01 9.659258262890000e-01 1.100000000000000e+01
5.000000000000000e-01 8.660254037839999e-01 1.075000000000000e+01
2.588190451030000e-01 9.659258262890000e-01 1.075000000000000e+01
8.660254037839999e-01 5.000000000000000e-01 1.050000000000000e+01
5.000000000000000e-01 8.660254037839999e-01 1.050000000000000e+01
5.000000000000000e-01 8.660254037839999e-01 1.100000000000000e+01
8.660254037839999e-01 5.000000000000000e-01 1.100000000000000e+01
7.071067811870000e-01 7.071067811870000e-01 1.050000000000000e+01
5.000000000000000e-01 8.660254037839999e-01 1.075000000000000e+01
7.071067811870000e-01 7.071067811870000e-01 1.100000000000000e+01
8.660254037839999e-01 5.000000000000000e-01 1.075000000000000e+01
7.071067811870000e-01 7.071067811870000e-01 1.075000000000000e+01
1.000000000000000e+00 0.000000000000000e+00 1.050000000000000e+01
8.660254037839999e-01 5.000000000000000e-01 1.050000000000000e+01
8.660254037839999e-01 5.000000000000000e-01 1.100000000000000e+01
1.000000000000000e+00 0.000000000000000e+00 1.100000000000000e+01
9.659258262890000e-01 2.588190451030000e-01 1.050000000000000e+01
8.660254037839999e-01 5.000000000000000e-01 1.075000000000000e+01
9.659258262890000e-01 2.588190451030000e-01 1.100000000000000e+01
1.000000000000000e+00 0.000000000000000e+00 1.075000000000000e+01
9.659258262890000e-01 2.588190451030000e-01 1.075000000000000e+01
5.000000000000000e-01 8.660254037839999e-01 1.000000000000000e+01
0.000000000000000e+00 1.000000000000000e+00 1.000000000000000e+01
0.000000000000000e+00 1.000000000000000e+00 1.050000000000000e+01
5.000000000000000e-01 8.660254037839999e-01 1.050000000000000e+01
2.588190451030000e-01 9.659258262890000e-01 1.000000000000000e+01
0.000000000000000e+00 1.000000000000000e+00 1.025000000000000e+01
2.588190451030000e-01 9.659258262890000e-01 1.050000000000000e+01
5.000000000000000e-01 8.660254037839999e-01 1.025000000000000e+01
2.588190451030000e-01 9.659258262890000e-01 1.025000000000000e+01
8.660254037839999e-01 5.000000000000000e-01 1.000000000000000e+01
5.000000000000000e-01 8.660254037839999e-01 1.000000000000000e+01
5.000000000000000e-01 8.660254037839999e-01 1.050000000000000e+01
8.660254037839999e-01 5.000000000000000e-01 1.050000000000000e+01
7.071067811870000e-01 7.071067811870000e-01 1.000000000000000e+01
5.000000000000000e-01 8.660254037839999e-01 1.025000000000000e+01
7.071067811870000e-01 7.071067811870000e-01 1.050000000000000e+01
8.660254037839999e-01 5.000000000000000e-01 1.025000000000000e+01
7.071067811870000e-01 7.071067811870000e-01 1.025000000000000e+01
1.000000000000000e+00 0.000000000000000e+00 1.000000000000000e+01
8.660254037839999e-01 5.000000000000000e-01 1.000000000000000e+01
8.660254037839999e-01 5.000000000000000e-01 1.050000000000000e+01
1.000000000000000e+00 0.000000000000000e+00 1.050000000000000e+01
9.659258262890000e-01 2.588190451030000e-01 1.000000000000000e+01
8.660254037839999e-01 5.000000000000000e-01 1.025000000000000e+01
9.659258262890000e-01 2.588190451030000e-01 1.050000000000000e+01
1.000000000000000e+00 0.000000000000000e+00 1.025000000000000e+01
9.659258262890000e-01 2.588190451030000e-01 1.025000000000000e+01
1.500000000000000e+00 3.000000000000000e-01 1.250000000000000e+01
1.500000000000000e+00 3.000000000000000e-01 1.300000000000000e+01
2.000000000000000e+00 3.000000000000000e-01 1.300000000000000e+01
2.000000000000000e+00 3.000000000000000e-01 1.250000000000000e+01
1.500000000000000e+00 3.000000000000000e-01 1.275000000000000e+01
1.750000000000000e+00 3.000000000000000e-01 1.300000000000000e+01
2.000000000000000e+00 3.000000000000000e-01 1.275000000000000e+01
1.750000000000000e+00 3.000000000000000e-01 1.250000000000000e+01
1.750000000000000e+00 3.000000000000000e-01 1.275000000000000e+01
5.000000000000000e-01 3.000000000000000e-01 1.250000000000000e+01
5.000000000000000e-01 3.000000000000000e-01 1.300000000000000e+01
1.000000000000000e+00 3.000000000000000e-01 1.300000000000000e+01
1.000000000000000e+00 3.000000000000000e-01 1.250000000000000e+01
5.000000000000000e-01 3.000000000000000e-01 1.275000000000000e+01
7.500000000000000e-01 3.000000000000000e-01 1.300000000000000e+01
1.000000000000000e+00 3.000000000000000e-01 1.275000000000000e+01
7.500000000000000e-01 3.000000000000000e-01 1.250000000000000e+01
7.500000000000000e-01 3.000000000000000e-01 1.275000000000000e+01
1.000000000000000e+00 3.000000000000000e-01 1.300000000000000e+01
1.000000000000000e+00 3.000000000000000e-01 1.350000000000000e+01
1.500000000000000e+00 3.000000000000000e-01 1.350000000000000e+01
1.500000000000000e+00 3.000000000000000e-01 1.300000000000000e+01
1.000000000000000e+00 3.000000000000000e-01 1.325000000000000e+01
1.250000000000000e+00 3.000000000000000e-01 1.350000000000000e+01
1.500000000000000e+00 3.000000000000000e-01 1.325000000000000e+01
1.250000000000000e+00 3.000000000000000e-01 1.300000000000000e+01
1.250000000000000e+00 3.000000000000000e-01 1.325000000000000e+01
1.000000000000000e+00 3.000000000000000e-01 1.250000000000000e+01
1.000000000000000e+00 3.000000000000000e-01 1.300000000000000e+01
1.500000000000000e+00 3.000000000000000e-01 1.300000000000000e+01
1.500000000000000e+00 3.000000000000000e-01 1.250000000000000e+01
1.000000000000000e+00 3.000000000000000e-01 1.275000000000000e+01
1.250000000000000e+00 3.000000000000000e-01 1.300000000000000e+01
1.500000000000000e+00 3.000000000000000e-01 1.275000000000000e+01
1.250000000000000e+00 3.000000000000000e-01 1.250000000000000e+01
1.250000000000000e+00 3.000000000000000e-01 1.275000000000000e+01
5.000000000000000e-01 3.000000000000000e-01 1.300000000000000e+01
5.000000000000000e-01 3.000000000000000e-01 1.350000000000000e+01
1.000000000000000e+00 3.000000000000000e-01 1.350000000000000e+01
1.000000000000000e+00 3.000000000000000e-01 1.300000000000000e+01
5.000000000000000e-01 3.000000000000000e-01 1.325000000000000e+01
7.500000000000000e-01 3.000000000000000e-01 1.350000000000000e+01
1.000000000000000e+00 3.000000000000000e-01 1.325000000000000e+01
7.500000000000000e-01 3.000000000000000e-01 1.300000000000000e+01
7.500000000000000e-01 3.000000000000000e-01 1.325000000000000e+01
0.000000000000000e+00 3.000000000000000e-01 1.250000000000000e+01
0.000000000000000e+00 3.000000000000000e-01 1.300000000000000e+01
5.000000000000000e-01 3.000000000000000e-01 1.300000000000000e+01
5.000000000000000e-01 3.000000000000000e-01 1.250000000000000e+01
0.000000000000000e+00 3.000000000000000e-01 1.275000000000000e+01
2.500000000000000e-01 3.000000000000000e-01 1.300000000000000e+01
5.000000000000000e-01 3.000000000000000e-01 1.275000000000000e+01
2.500000000000000e-01 3.000000000000000e-01 1.250000000000000e+01
2.500000000000000e-01 3.000000000000000e-01 1.275000000000000e+01
0.000000000000000e+00 3.000000000000000e-01 1.300000000000000e+01
0.000000000000000e+00 3.000000000000000e-01 1.350000000000000e+01
5.000000000000000e-01 3.000000000000000e-01 1.350000000000000e+01
5.000000000000000e-01 3.000000000000000e-01 1.300000000000000e+01
0.000000000000000e+00 3.000000000000000e-01 1.325000000000000e+01
2.500000000000000e-01 3.000000000000000e-01 1.350000000000000e+01
5.000000000000000e-01 3.000000000000000e-01 1.325000000000000e+01
2.500000000000000e-01 3.000000000000000e-01 1.300000000000000e+01
2.500000000000000e-01 3.000000000000000e-01 1.325000000000000e+01
1.500000000000000e+00 3.000000000000000e-01 1.300000000000000e+01
1.500000000000000e+00 3.000000000000000e-01 1.350000000000000e+01
2.000000000000000e+00 3.000000000000000e-01 1.350000000000000e+01
2.000000000000000e+00 3.000000000000000e-01 1.300000000000000e+01
1.500000000000000e+00 3.000000000000000e-01 1.325000000000000e+01
1.750000000000000e+00 3.000000000000000e-01 1.350000000000000e+01
2.000000000000000e+00 3.000000000000000e-01 1.325000000000000e+01
1.750000000000000e+00 3.000000000000000e-01 1.300000000000000e+01
1.750000000000000e+00 3.000000000000000e-01 1.325000000000000e+01
0.000000000000000e+00 1.000000000000000e+00 1.550000000000000e+01
4.329390516020000e-01 9.014231956180000e-01 1.574976147080000e+01
5.000000000000000e-01 8.660254037839999e-01 1.500000000000000e+01
7.282793318550000e-01 6.852803913680000e-01 1.548410264420000e+01
5.000000000000000e-01 8.660254037839999e-01 1.500000000000000e+01
4.329390516020000e-01 9.014231956180000e-01 1.574976147080000e+01
4.329390516020000e-01 9.014231956180000e-01 1.574976147080000e+01
0.000000000000000e+00 1.000000000000000e+00 1.600000000000000e+01
5.000000000000000e-01 8.660254037839999e-01 1.650000000000000e+01
0.000000000000000e+00 1.000000000000000e+00 1.650000000000000e+01
5.000000000000000e-01 8.660254037839999e-01 1.650000000000000e+01
0.000000000000000e+00 1.000000000000000e+00 1.600000000000000e+01
0.000000000000000e+00 1.000000000000000e+00 1.550000000000000e+01
5.000000000000000e-01 8.660254037839999e-01 1.500000000000000e+01
0.000000000000000e+00 1.000000000000000e+00 1.500000000000000e+01
9.504792740630000e-01 3.107879495360000e-01 1.574983937880000e+01
1.000000000000000e+00 0.000000000000000e+00 1.600000000000000e+01
1.000000000000000e+00 0.000000000000000e+00 1.550000000000000e+01
7.283520826140000e-01 6.852030675290000e-01 1.601496824100000e+01
5.000000000000000e-01 8.660254037839999e-01 1.650000000000000e+01
8.660254037839999e-01 5.000000000000000e-01 1.650000000000000e+01
7.282793318550000e-01 6.852803913680000e-01 1.548410264420000e+01
8.660254037839999e-01 5.000000000000000e-01 1.500000000000000e+01
5.000000000000000e-01 8.660254037839999e-01 1.500000000000000e+01
8.660254037839999e-01 5.000000000000000e-01 1.650000000000000e+01
1.000000000000000e+00 0.000000000000000e+00 1.650000000000000e+01
9.504792740630000e-01 3.107879495360000e-01 1.574983937880000e+01
8.660254037839999e-01 5.000000000000000e-01 1.500000000000000e+01
7.282793318550000e-01 6.852803913680000e-01 1.548410264420000e+01
9.504792740630000e-01 3.107879495360000e-01 1.574983937880000e+01
9.504792740630000e-01 3.107879495360000e-01 1.574983937880000e+01
7.283520826140000e-01 6.852030675290000e-01 1.601496824100000e+01
8.660254037839999e-01 5.000000000000000e-01 1.650000000000000e+01
7.282793318550000e-01 6.852803913680000e-01 1.548410264420000e+01
4.329390516020000e-01 9.014231956180000e-01 1.574976147080000e+01
7.283520826140000e-01 6.852030675290000e-01 1.601496824100000e+01
9.504792740630000e-01 3.107879495360000e-01 1.574983937880000e+01
1.000000000000000e+00 0.000000000000000e+00 1.500000000000000e+01
8.660254037839999e-01 5.000000000000000e-01 1.500000000000000e+01
4.329390516020000e-01 9.014231956180000e-01 1.574976147080000e+01
5.000000000000000e-01 8.660254037839999e-01 1.650000000000000e+01
7.283520826140000e-01 6.852030675290000e-01 1.601496824100000e+01
1.000000000000000e+00 0.000000000000000e+00 1.550000000000000e+01
1.000000000000000e+00 0.000000000000000e+00 1.500000000000000e+01
9.504792740630000e-01 3.107879495360000e-01 1.574983937880000e+01
9.504792740630000e-01 3.107879495360000e-01 1.574983937880000e+01
1.000000000000000e+00 0.000000000000000e+00 1.650000000000000e+01
1.000000000000000e+00 0.000000000000000e+00 1.600000000000000e+01
7.282793318550000e-01 6.852803913680000e-01 1.548410264420000e+01
7.283520826140000e-01 6.852030675290000e-01 1.601496824100000e+01
9.504792740630000e-01 3.107879495360000e-01 1.574983937880000e+01
4.329390516020000e-01 9.014231956180000e-01 1.574976147080000e+01
0.000000000000000e+00 1.000000000000000e+00 1.550000000000000e+01
0.000000000000000e+00 1.000000000000000e+00 1.600000000000000e+01
        </DataArray>
      </Points>

      <Cells>
        <DataArray type="Int32" Name="connectivity" format="ascii">

        </DataArray>
        <DataArray type="Int32" Name="offsets" format="ascii">

        </DataArray>
        <DataArray type="UInt8" Name="types" format="ascii">

        </DataArray>
      </Cells>

  <PointData>
        <DataArray type="Int32" Name="coupling_id" format="ascii">
5
5
5
5
5
5
5
5
5
5
5
5
5
5
5
5
5
5
5
5
5
5
5
5
5
5
5
5
5
5
5
5
5
5
5
5
5
5
5
5
5
5
5
5
5
5
5
5
5
5
5
5
5
5
5
5
5
5
5
5
5
5
5
5
5
5
5
5
5
5
5
5
5
5
5
5
5
5
5
5
5
6
6
6
6
6
6
6
6
6
6
6
6
6
6
6
6
6
6
6
6
6
6
6
6
6
6
6
6
6
6
6
6
6
6
6
6
6
6
6
6
6
6
6
6
6
6
6
6
6
6
6
6
6
6
6
6
6
6
6
6
6
6
6
6
6
6
6
6
6
6
6
6
7
7
7
7
7
7
7
7
7
7
7
7
7
7
7
7
7
7
7
7
7
7
7
7
7
7
7
7
7
7
7
7
7
7
7
7
7
7
7
7
7
7
7
7
7
7
7
7
7
7
7
7
7
7
        </DataArray>
        <DataArray type="Float64" Name="displacement" NumberOfComponents="3" format="ascii">
5.359808150462497e-02 1.526540490798625e-01 -7.438919310427394e-04
-1.005397380205025e-02 5.314167083375232e-02 -4.350863242590819e-03
-9.935250488182779e-03 2.896223693438615e-02 8.212504293059197e-04
3.396054363559264e-02 1.068455240932501e-01 -1.379018880896865e-03
1.141485194092906e-02 1.030513490427170e-01 -1.647380740148918e-03
-9.365836141890405e-03 4.266072796506304e-02 -1.810222617633528e-03
2.426426791152902e-03 6.714465671075431e-02 4.797948021320053e-04
4.491003001784677e-02 1.291552841844028e-01 -1.319788254878773e-03
8.025666706684587e-03 8.540885733820947e-02 -5.954188302403907e-04
-1.005397380205025e-02 5.314167083375232e-02 -4.350863242590819e-03
0.000000000000000e+00 0.000000000000000e+00 0.000000000000000e+00
0.000000000000000e+00 0.000000000000000e+00 0.000000000000000e+00
-9.935250488182779e-03 2.896223693438615e-02 8.212504293059197e-04
-1.115275871006918e-02 1.520401846554253e-02 -3.186534565568166e-03
0.000000000000000e+00 0.000000000000000e+00 0.000000000000000e+00
-5.155888670754283e-03 7.278526249332451e-03 2.213410709138941e-03
-9.365836141890405e-03 4.266072796506304e-02 -1.810222617633528e-03
-8.206209130145470e-03 1.338543559626204e-02 -9.735392575294100e-05
1.861264158022531e-01 2.117775932064150e-01 -1.600448725228709e-02
5.359808150462497e-02 1.526540490798625e-01 -7.438919310427394e-04
3.396054363559264e-02 1.068455240932501e-01 -1.379018880896865e-03
1.455492638194260e-01 1.563440167838583e-01 -2.410072924687157e-02
1.142129811704347e-01 1.910980978083132e-01 -2.914366701492810e-03
4.491003001784677e-02 1.291552841844028e-01 -1.319788254878773e-03
8.368453209977211e-02 1.385288795604068e-01 -8.804999413687398e-03
1.640101076442231e-01 1.818313124633201e-01 -2.145421867368036e-02
9.905938268267112e-02 1.632334460027597e-01 -6.686651313076553e-03
-9.927907211261078e-03 6.307194246623937e-02 -6.003289002778800e-03
0.000000000000000e+00 0.000000000000000e+00 0.000000000000000e+00
0.000000000000000e+00 0.000000000000000e+00 0.000000000000000e+00
-1.005397380205025e-02 5.314167083375232e-02 -4.350863242590819e-03
-1.122988160857752e-02 1.641842969668494e-02 -4.663083067770302e-03
0.000000000000000e+00 0.000000000000000e+00 0.000000000000000e+00
-1.115275871006918e-02 1.520401846554253e-02 -3.186534565568166e-03
-9.585054659091041e-03 5.985533722564751e-02 -5.287654002902542e-03
-1.129799976090595e-02 1.651506065449893e-02 -4.329887408507815e-03
7.389923125314024e-02 1.955121217535035e-01 -6.999314948060942e-03
-9.927907211261078e-03 6.307194246623937e-02 -6.003289002778800e-03
-1.005397380205025e-02 5.314167083375232e-02 -4.350863242590819e-03
5.359808150462497e-02 1.526540490798625e-01 -7.438919310427394e-04
1.803682988785626e-02 1.289523568819380e-01 -6.396877007208701e-03
-9.585054659091041e-03 5.985533722564751e-02 -5.287654002902542e-03
1.141485194092906e-02 1.030513490427170e-01 -1.647380740148918e-03
6.315622149185374e-02 1.763603266541901e-01 -1.016483192481488e-03
1.734463837086542e-02 1.199550981287223e-01 -5.238486560902089e-03
2.526496317663955e-01 2.850251396679282e-01 6.351828230860335e-03
7.389923125314024e-02 1.955121217535035e-01 -6.999314948060942e-03
5.359808150462497e-02 1.526540490798625e-01 -7.438919310427394e-04
1.861264158022531e-01 2.117775932064150e-01 -1.600448725228709e-02
1.556065429345492e-01 2.544179401281853e-01 9.726289941074384e-03
6.315622149185374e-02 1.763603266541901e-01 -1.016483192481488e-03
1.142129811704347e-01 1.910980978083132e-01 -2.914366701492810e-03
2.144238829504779e-01 2.466581864478996e-01 -6.496441134736131e-03
1.322536033060775e-01 2.218581499809524e-01 2.970127076164175e-03
-1.068165426211087e-02 6.369394386413574e-02 -8.564584392528829e-03
0.000000000000000e+00 0.000000000000000e+00 0.000000000000000e+00
0.000000000000000e+00 0.000000000000000e+00 0.000000000000000e+00
-9.927907211261078e-03 6.307194246623937e-02 -6.003289002778800e-03
-1.218642043800944e-02 1.202401872297620e-02 -6.562775677990018e-03
0.000000000000000e+00 0.000000000000000e+00 0.000000000000000e+00
-1.122988160857752e-02 1.641842969668494e-02 -4.663083067770302e-03
-9.207640143464813e-03 6.521871772453702e-02 -7.169938399135489e-03
-1.055134893746354e-02 1.584550499433179e-02 -4.908326812911312e-03
1.014401933274400e-01 2.440031265051892e-01 1.100158956526265e-02
-1.068165426211087e-02 6.369394386413574e-02 -8.564584392528829e-03
-9.927907211261078e-03 6.307194246623937e-02 -6.003289002778800e-03
7.389923125314024e-02 1.955121217535035e-01 -6.999314948060942e-03
2.469082943349210e-02 1.474866093945053e-01 -3.541063743643491e-03
-9.207640143464813e-03 6.521871772453702e-02 -7.169938399135489e-03
1.803682988785626e-02 1.289523568819380e-01 -6.396877007208701e-03
9.063688072826726e-02 2.197157416979998e-01 1.184888086037006e-03
2.155184574819857e-02 1.400934299381080e-01 -3.851318752072785e-03
3.762624156880117e-01 3.581842502926375e-01 3.497031427681030e-02
1.014401933274400e-01 2.440031265051892e-01 1.100158956526265e-02
7.389923125314024e-02 1.955121217535035e-01 -6.999314948060942e-03
2.526496317663955e-01 2.850251396679282e-01 6.351828230860335e-03
2.418144305358825e-01 3.171759079818800e-01 2.640994493303239e-02
9.063688072826726e-02 2.197157416979998e-01 1.184888086037006e-03
1.556065429345492e-01 2.544179401281853e-01 9.726289941074384e-03
2.989212374134373e-01 3.229552400954785e-01 2.035007296302815e-02
1.985023203136658e-01 2.839574799213090e-01 1.227591559590380e-02
-1.571300325984115e-01 5.034513715274325e-01 5.485580220603836e-02
-2.195303987526391e-01 5.760230313750687e-01 4.867049705168824e-02
-3.231887126656736e-01 8.779437617486274e-01 4.045412579660201e-02
-2.523073790297394e-01 7.886807445656079e-01 5.694103043930809e-02
-1.886970896794571e-01 5.404449220943961e-01 5.136806403391603e-02
-2.717684192028327e-01 7.241111961641975e-01 4.459690531562366e-02
-2.866174265975525e-01 8.313449850107077e-01 4.989176227163661e-02
-2.044854187946894e-01 6.433163116082108e-01 5.609836526118528e-02
-2.374265236302657e-01 6.841920180694552e-01 5.076674995573427e-02
-1.390692662304632e-02 5.458401294591919e-02 1.143827805948661e-02
-5.567660108740125e-02 9.207686273457449e-02 1.395716981225625e-02
-1.221475793541166e-01 3.037929230163015e-01 4.164026092154849e-02
-7.017977535997999e-02 2.464398866088618e-01 3.949302085999662e-02
-3.481761240914250e-02 7.451835056336126e-02 1.133278441043295e-02
-8.616644686459374e-02 1.853765561346009e-01 2.586380273860200e-02
-9.969840235940364e-02 2.762089057143862e-01 3.945084189694192e-02
-3.780396718846490e-02 1.398047683563708e-01 2.638870530881654e-02
-6.178968832574394e-02 1.636280221340171e-01 2.566031007171787e-02
-1.221475793541166e-01 3.037929230163015e-01 4.164026092154849e-02
-1.752913245253549e-01 3.345500267158120e-01 3.786593790603732e-02
-2.835859856893637e-01 6.422764236429972e-01 3.973089693672627e-02
-2.195303987526391e-01 5.760230313750687e-01 4.867049705168824e-02
-1.519096815025064e-01 3.210874522539056e-01 3.764245912146258e-02
-2.282676554630123e-01 4.818893251040838e-01 4.030579621659847e-02
-2.437652279429507e-01 6.117950744663612e-01 4.856540320037439e-02
-1.668069474866565e-01 4.367323378361705e-01 4.999105480466959e-02
-1.952219072675987e-01 4.615790122355649e-01 4.698518190552647e-02
-7.017977535997999e-02 2.464398866088618e-01 3.949302085999662e-02
-1.221475793541166e-01 3.037929230163015e-01 4.164026092154849e-02
-2.195303987526391e-01 5.760230313750687e-01 4.867049705168824e-02
-1.571300325984115e-01 5.034513715274325e-01 5.485580220603836e-02
-9.969840235940364e-02 2.762089057143862e-01 3.945084189694192e-02
-1.668069474866565e-01 4.367323378361705e-01 4.999105480466959e-02
-1.886970896794571e-01 5.404449220943961e-01 5.136806403391603e-02
-1.107340396929413e-01 3.707116409527683e-01 4.991618677202503e-02
-1.423101405261993e-01 4.034430512126004e-01 4.779047176054263e-02
-5.567660108740125e-02 9.207686273457449e-02 1.395716981225625e-02
-8.614513279349834e-02 9.570548149321528e-02 2.247048082459813e-02
-1.752913245253549e-01 3.345500267158120e-01 3.786593790603732e-02
-1.221475793541166e-01 3.037929230163015e-01 4.164026092154849e-02
-7.239086997817712e-02 9.776746960612498e-02 1.777184567039569e-02
-1.290204808378813e-01 2.041644789141608e-01 3.088378051364415e-02
-1.519096815025064e-01 3.210874522539056e-01 3.764245912146258e-02
-8.616644686459374e-02 1.853765561346009e-01 2.586380273860200e-02
-1.099166924624698e-01 1.987730828050343e-01 2.773169901920802e-02
0.000000000000000e+00 0.000000000000000e+00 0.000000000000000e+00
0.000000000000000e+00 0.000000000000000e+00 0.000000000000000e+00
-5.567660108740125e-02 9.207686273457449e-02 1.395716981225625e-02
-1.390692662304632e-02 5.458401294591919e-02 1.143827805948661e-02
0.000000000000000e+00 0.000000000000000e+00 0.000000000000000e+00
-2.739334803105042e-02 2.937413717659065e-02 4.548398697053813e-03
-3.481761240914250e-02 7.451835056336126e-02 1.133278441043295e-02
-2.567790772417256e-03 4.787549011636472e-03 5.533612672365962e-04
-1.560714455163598e-02 2.180506379820479e-02 1.998264906692526e-03
0.000000000000000e+00 0.000000000000000e+00 0.000000000000000e+00
0.000000000000000e+00 0.000000000000000e+00 0.000000000000000e+00
-8.614513279349834e-02 9.570548149321528e-02 2.247048082459813e-02
-5.567660108740125e-02 9.207686273457449e-02 1.395716981225625e-02
0.000000000000000e+00 0.000000000000000e+00 0.000000000000000e+00
-4.299785695166192e-02 2.672610033680034e-02 1.616650324012703e-02
-7.239086997817712e-02 9.776746960612498e-02 1.777184567039569e-02
-2.739334803105042e-02 2.937413717659065e-02 4.548398697053813e-03
-3.518752180386908e-02 3.175130850876640e-02 8.268848485258218e-03
-2.195303987526391e-01 5.760230313750687e-01 4.867049705168824e-02
-2.835859856893637e-01 6.422764236429972e-01 3.973089693672627e-02
-4.033398338567951e-01 9.988992970060437e-01 1.552016243542376e-02
-3.231887126656736e-01 8.779437617486274e-01 4.045412579660201e-02
-2.437652279429507e-01 6.117950744663612e-01 4.856540320037439e-02
-3.373624418884336e-01 8.190665807872040e-01 3.244444742979269e-02
-3.612950585017698e-01 9.265812227773180e-01 3.029202340933068e-02
-2.717684192028327e-01 7.241111961641975e-01 4.459690531562366e-02
-3.036172920154907e-01 7.714392865202711e-01 3.991844617386775e-02
0.000000000000000e+00 0.000000000000000e+00 0.000000000000000e+00
-1.354157439582632e-02 2.633325510423445e-02 -8.684607854796411e-03
-7.224652028353096e-04 2.679159159019118e-02 -5.900216477144227e-03
1.418466798523832e-02 8.056985825132279e-02 -3.237015107115937e-03
-7.224652028353096e-04 2.679159159019118e-02 -5.900216477144227e-03
-1.354157439582632e-02 2.633325510423445e-02 -8.684607854796411e-03
-1.354157439582632e-02 2.633325510423445e-02 -8.684607854796411e-03
0.000000000000000e+00 0.000000000000000e+00 0.000000000000000e+00
-7.095230827281140e-03 5.666656141796500e-02 -9.122933563357805e-03
0.000000000000000e+00 0.000000000000000e+00 0.000000000000000e+00
-7.095230827281140e-03 5.666656141796500e-02 -9.122933563357805e-03
0.000000000000000e+00 0.000000000000000e+00 0.000000000000000e+00
0.000000000000000e+00 0.000000000000000e+00 0.000000000000000e+00
-7.224652028353096e-04 2.679159159019118e-02 -5.900216477144227e-03
0.000000000000000e+00 0.000000000000000e+00 0.000000000000000e+00
7.137010691904855e-02 1.377744205096800e-01 4.010331322957583e-03
1.297755122552793e-01 1.562666099621666e-01 9.435700563123817e-03
1.652551662296362e-01 1.642293199575590e-01 1.396664472355269e-02
7.871168081521107e-03 8.171827032333490e-02 -6.213828191100390e-03
-7.095230827281140e-03 5.666656141796500e-02 -9.122933563357805e-03
2.842764634276840e-02 1.179644127995356e-01 9.473655921183877e-04
1.418466798523832e-02 8.056985825132279e-02 -3.237015107115937e-03
6.490547478326436e-02 1.118333761371326e-01 4.323595364335020e-03
-7.224652028353096e-04 2.679159159019118e-02 -5.900216477144227e-03
2.842764634276840e-02 1.179644127995356e-01 9.473655921183877e-04
1.194568747858804e-01 1.554841993953681e-01 6.634571409804835e-03
7.137010691904855e-02 1.377744205096800e-01 4.010331322957583e-03
6.490547478326436e-02 1.118333761371326e-01 4.323595364335020e-03
1.418466798523832e-02 8.056985825132279e-02 -3.237015107115937e-03
7.137010691904855e-02 1.377744205096800e-01 4.010331322957583e-03
7.137010691904855e-02 1.377744205096800e-01 4.010331322957583e-03
7.871168081521107e-03 8.171827032333490e-02 -6.213828191100390e-03
2.842764634276840e-02 1.179644127995356e-01 9.473655921183877e-04
1.418466798523832e-02 8.056985825132279e-02 -3.237015107115937e-03
-1.354157439582632e-02 2.633325510423445e-02 -8.684607854796411e-03
7.871168081521107e-03 8.171827032333490e-02 -6.213828191100390e-03
7.137010691904855e-02 1.377744205096800e-01 4.010331322957583e-03
2.221827769318512e-01 1.746026261184310e-01 2.262814217060338e-02
6.490547478326436e-02 1.118333761371326e-01 4.323595364335020e-03
-1.354157439582632e-02 2.633325510423445e-02 -8.684607854796411e-03
-7.095230827281140e-03 5.666656141796500e-02 -9.122933563357805e-03
7.871168081521107e-03 8.171827032333490e-02 -6.213828191100390e-03
1.652551662296362e-01 1.642293199575590e-01 1.396664472355269e-02
2.221827769318512e-01 1.746026261184310e-01 2.262814217060338e-02
7.137010691904855e-02 1.377744205096800e-01 4.010331322957583e-03
7.137010691904855e-02 1.377744205096800e-01 4.010331322957583e-03
1.194568747858804e-01 1.554841993953681e-01 6.634571409804835e-03
1.297755122552793e-01 1.562666099621666e-01 9.435700563123817e-03
1.418466798523832e-02 8.056985825132279e-02 -3.237015107115937e-03
7.871168081521107e-03 8.171827032333490e-02 -6.213828191100390e-03
7.137010691904855e-02 1.377744205096800e-01 4.010331322957583e-03
-1.354157439582632e-02 2.633325510423445e-02 -8.684607854796411e-03
0.000000000000000e+00 0.000000000000000e+00 0.000000000000000e+00
0.000000000000000e+00 0.000000000000000e+00 0.000000000000000e+00
        </DataArray>
        <DataArray type="Float64" Name="normal_averaged" NumberOfComponents="3" format="ascii">
0.000000000000000e+00 0.000000000000000e+00 0.000000000000000e+00
0.000000000000000e+00 0.000000000000000e+00 0.000000000000000e+00
0.000000000000000e+00 0.000000000000000e+00 0.000000000000000e+00
0.000000000000000e+00 0.000000000000000e+00 0.000000000000000e+00
0.000000000000000e+00 0.000000000000000e+00 0.000000000000000e+00
0.000000000000000e+00 0.000000000000000e+00 0.000000000000000e+00
0.000000000000000e+00 0.000000000000000e+00 0.000000000000000e+00
0.000000000000000e+00 0.000000000000000e+00 0.000000000000000e+00
0.000000000000000e+00 0.000000000000000e+00 0.000000000000000e+00
0.000000000000000e+00 0.000000000000000e+00 0.000000000000000e+00
0.000000000000000e+00 0.000000000000000e+00 0.000000000000000e+00
0.000000000000000e+00 0.000000000000000e+00 0.000000000000000e+00
0.000000000000000e+00 0.000000000000000e+00 0.000000000000000e+00
0.000000000000000e+00 0.000000000000000e+00 0.000000000000000e+00