<?xml version="1.0" ?> 
<!-- 
# vtk DataFile Version 3.0
-->
<VTKFile type="UnstructuredGrid" version="0.1" compressor="vtkZLibDataCompressor" byte_order="LittleEndian">
  <UnstructuredGrid>
    <FieldData>
      <DataArray type="Float64" Name="TIME" NumberOfTuples="1" format="ascii">
1.000000000000000e+00 
      </DataArray>
    </FieldData>

    <Piece NumberOfPoints="120" NumberOfCells="0" >
      <Points>
        <DataArray type="Float64" NumberOfComponents="3" format="ascii">
9.961533271253296e-01 8.592418384217468e-02 1.001528337982333e+01
9.887948166356072e-01 1.468155374228861e-01 1.007667799810775e+01
9.699057734528997e-01 2.404816442778351e-01 1.017233230912582e+01
9.380670753122615e-01 3.436214899181053e-01 1.028036454912662e+01
9.009383449563291e-01 4.317257829632457e-01 1.037602838147731e+01
8.728438351827581e-01 4.862941241983075e-01 1.043743382419883e+01
8.645497179204786e-01 5.009905353632849e-01 1.045431690383089e+01
8.613358063732843e-01 5.065360022143091e-01 1.046072952187738e+01
8.562595335065574e-01 5.151341387642764e-01 1.047071954014461e+01
8.504256031897974e-01 5.247830668037858e-01 1.048200134778862e+01
8.451705116297211e-01 5.332719929200118e-01 1.049199119819850e+01
8.417533079831605e-01 5.386933026265446e-01 1.049840362541443e+01
8.369844012614820e-01 5.461338450610067e-01 1.050724705186044e+01
8.208293326309556e-01 5.703233495082329e-01 1.053635688252727e+01
7.942826731309308e-01 6.070389578834090e-01 1.058170455032927e+01
7.623226018624459e-01 6.469891358993187e-01 1.063291314006692e+01
7.323077742785250e-01 6.809298918796346e-01 1.067825441533943e+01
7.122098786564531e-01 7.019647732937933e-01 1.070735697858518e+01
7.008269703339561e-01 7.133286624821875e-01 1.072344259343094e+01
6.750380656917323e-01 7.377237166737388e-01 1.075895613753968e+01
6.331395642194489e-01 7.737907594583106e-01 1.081428630311222e+01
5.834721328776665e-01 8.116130623035265e-01 1.087677708285518e+01
5.375825449257672e-01 8.424573708020121e-01 1.093211597897423e+01
5.072563274668751e-01 8.609148991255213e-01 1.096763944850574e+01
4.989181105624448e-01 8.657388507081265e-01 1.097727724631408e+01
4.961485477194869e-01 8.673179129659631e-01 1.098046681264573e+01
4.918240125478445e-01 8.697606269088552e-01 1.098543578112653e+01
4.869258747743079e-01 8.724938773772734e-01 1.099104734105223e+01
4.825760223286064e-01 8.748916482911799e-01 1.099601634154254e+01
4.797776772498691e-01 8.764196165467997e-01 1.099920594426457e+01
4.641820757010020e-01 8.847293964108308e-01 1.101688397738750e+01
4.030747554851742e-01 9.140811066120945e-01 1.108470553458853e+01
3.043774023409630e-01 9.515951681561912e-01 1.119036371809793e+01
1.889884020163060e-01 9.814371024917952e-01 1.130967930607106e+01
8.453087395121323e-02 9.962767781175120e-01 1.141532014147873e+01
1.687503226679491e-02 9.998508504843170e-01 1.148312197628971e+01
1.135060971593723e-01 2.999999999999999e-01 1.250707462232157e+01
1.677581227067585e-01 3.000000000000000e-01 1.253549234998922e+01
2.522761627833782e-01 3.000000000000000e-01 1.257976370431505e+01
3.477238372166552e-01 3.000000000000000e-01 1.262976010520866e+01
4.322418772932616e-01 3.000000000000000e-01 1.267403145953451e+01
4.864939028406324e-01 3.000000000000000e-01 1.270244918720220e+01
1.001841740521729e+00 3.000000000000000e-01 1.297239329265430e+01
1.009239744005450e+00 3.000000000000000e-01 1.297626843733625e+01
1.020764931288605e+00 3.000000000000000e-01 1.298230544019885e+01
1.033780523256758e+00 3.000000000000000e-01 1.298912313122978e+01
1.045305710539913e+00 3.000000000000000e-01 1.299516013409238e+01
1.052703714023634e+00 3.000000000000000e-01 1.299903527877433e+01
1.057768500458404e+00 2.999999999999999e-01 1.300168826214492e+01
1.070715006554948e+00 3.000000000000000e-01 1.300846976533834e+01
1.090884084300521e+00 3.000000000000000e-01 1.301903452034792e+01
1.113661370244846e+00 3.000000000000000e-01 1.303096547965208e+01
1.133830447990420e+00 3.000000000000000e-01 1.304153023466166e+01
1.146776954086965e+00 3.000000000000000e-01 1.304831173785508e+01
5.168826214492116e-01 2.999999999999999e-01 1.271836708742574e+01
5.846976533834307e-01 3.000000000000000e-01 1.275388924701036e+01
6.903452034791926e-01 3.000000000000000e-01 1.280922843991769e+01
8.096547965207879e-01 3.000000000000000e-01 1.287172394103475e+01
9.153023466165575e-01 3.000000000000000e-01 1.292706313394207e+01
9.831173785507862e-01 3.000000000000000e-01 1.296258529352666e+01
1.516882621449212e+00 3.000000000000000e-01 1.324217661123526e+01
1.584697653383433e+00 3.000000000000000e-01 1.327769877081987e+01
1.690345203479197e+00 2.999999999999999e-01 1.333303796372720e+01
1.809654796520792e+00 3.000000000000000e-01 1.339553346484426e+01
1.915302346616560e+00 3.000000000000000e-01 1.345087265775159e+01
1.983117378550787e+00 3.000000000000000e-01 1.348639481733619e+01
1.161817835014451e+00 3.000000000000000e-01 1.305619029453137e+01
1.209288357368413e+00 3.000000000000000e-01 1.308105580624057e+01
1.283241642435455e+00 3.000000000000000e-01 1.311979324127566e+01
1.366758357564572e+00 3.000000000000000e-01 1.316354009205757e+01
1.440711642631603e+00 3.000000000000000e-01 1.320227752709269e+01
1.488182164985553e+00 3.000000000000000e-01 1.322714303880191e+01
9.070650653464133e-01 4.186580795705814e-01 1.536159206949254e+01
8.950822480933278e-01 4.437871811380311e-01 1.538943997793707e+01
8.750665984999541e-01 4.822566682076080e-01 1.543282304887479e+01
8.505228397998896e-01 5.246242147514946e-01 1.548181499091760e+01
8.271062642445691e-01 5.611040165915592e-01 1.552519528674441e+01
8.112570649838536e-01 5.839711214974205e-01 1.555304004027200e+01
7.275873491051746e-01 6.859859961160715e-01 1.568517449687871e+01
7.247521355521293e-01 6.889880931486068e-01 1.568930530326774e+01
7.203093460059936e-01 6.936408674444844e-01 1.569574053183864e+01
7.152542474285263e-01 6.988597192898016e-01 1.570300785067449e+01
7.107446622751689e-01 7.034491651496845e-01 1.570944290890665e+01
7.078335113636389e-01 7.063792665174387e-01 1.571357352164412e+01
8.047480006274301e-01 5.929820465956064e-01 1.556416501674273e+01
7.947030023280517e-01 6.064842593421638e-01 1.558100800547163e+01
7.786014622191854e-01 6.271728323038163e-01 1.560724656980361e+01
7.597623654922834e-01 6.500113759529554e-01 1.563687701812151e+01
7.425078079475019e-01 6.697511039947798e-01 1.566311333146466e+01
7.311519884427850e-01 6.821746114219317e-01 1.567995376113089e+01
9.964710584863027e-01 8.229064145285635e-02 1.501163316895894e+01
9.911975134564597e-01 1.301006405463192e-01 1.505977710265705e+01
9.783819180697664e-01 2.039295720035984e-01 1.513478546173187e+01
9.573494102149177e-01 2.859207355439163e-01 1.521950005241701e+01
9.330942688524111e-01 3.568682511480752e-01 1.529451728170782e+01
9.148155436947953e-01 4.014024793086637e-01 1.534267129961355e+01
2.456706147871300e-01 9.685860668876521e-01 1.625151436836198e+01
2.117621839604177e-01 9.766857771015962e-01 1.628639876549158e+01
1.584443528898253e-01 9.869517261869983e-01 1.634074210102360e+01
9.767303617151152e-02 9.950324862350789e-01 1.640210868125585e+01
4.352888424665127e-02 9.990099379312982e-01 1.645644352172519e+01
8.681041001315897e-03 9.999604971691232e-01 1.649131826114454e+01
7.032302953698305e-01 7.109611073671974e-01 1.572006860832487e+01
6.874415638215612e-01 7.262157416548995e-01 1.574202842258868e+01
6.621689056486519e-01 7.492468447135284e-01 1.577624091132848e+01
6.326790676025325e-01 7.741647783239105e-01 1.581488003596214e+01
6.057664368660205e-01 7.952460311085787e-01 1.584909650038570e+01
5.881132835444265e-01 8.082839555645570e-01 1.587106083445158e+01
5.796019662720782e-01 8.143585406054136e-01 1.588152591463934e+01
5.631007286989683e-01 8.257595169715606e-01 1.590159819532316e+01
5.369463558964163e-01 8.428597115262899e-01 1.593286919017773e+01
5.067854825846104e-01 8.611901175011326e-01 1.596818510259591e+01
4.795565402838006e-01 8.765398791833163e-01 1.599945776696466e+01
4.618336659504381e-01 8.859508556965703e-01 1.601953194565498e+01
4.508226801951268e-01 8.915755801675478e-01 1.603190039367914e+01
4.241931068641716e-01 9.044973838509488e-01 1.606150854053305e+01
3.819921466587786e-01 9.230828702861960e-01 1.610763478259903e+01
3.333858177553337e-01 9.417676085393819e-01 1.615972590970380e+01
2.896054468963422e-01 9.562312010189161e-01 1.620585154067648e+01
2.611803022997792e-01 9.644669818938103e-01 1.623545899280192e+01
        </DataArray>
      </Points>

      <Cells>
        <DataArray type="Int32" Name="connectivity" format="ascii">

        </DataArray>
        <DataArray type="Int32" Name="offsets" format="ascii">

        </DataArray>
        <DataArray type="UInt8" Name="types" format="ascii">

        </DataArray>
      </Cells>

  <PointData>
        <DataArray type="Float64" Name="displacement" NumberOfComponents="3" format="ascii">
8.693037894387246e-04 7.959870687151288e-04 3.294600160330674e-05
9.377657490736713e-04 8.082815354429895e-04 -2.381683229302212e-06
9.459586495669248e-04 7.751947732721198e-04 -2.289169337998942e-05
8.484775335246830e-04 6.867025419868833e-04 -9.464806254300129e-06
7.051158254842704e-04 5.884514177660893e-04 2.084831724324943e-05
6.012811758535630e-04 5.266630259467275e-04 4.329949960890644e-05
5.725900757633795e-04 5.108499766942609e-04 4.933179029009693e-05
5.617576463248231e-04 5.050316721841863e-04 5.157680856804348e-05
5.449886595423337e-04 4.961973468757819e-04 5.501051022882564e-05
5.262499831838463e-04 4.865861824233653e-04 5.877894355243996e-05
5.098757943372556e-04 4.784282197860534e-04 6.200314996007705e-05
4.994921954974973e-04 4.733788460000721e-04 6.401000113598343e-05
4.853567514998547e-04 4.666701345824587e-04 6.668901374240477e-05
4.406542882032793e-04 4.468880265712238e-04 7.466405178746527e-05
3.784073462139714e-04 4.243277493652942e-04 8.383571261560974e-05
3.229329881327958e-04 4.136490361706935e-04 8.794053537464208e-05
2.909286144676670e-04 4.200021039724167e-04 8.454915119671114e-05
2.806077646908545e-04 4.330904665824642e-04 7.824174625170599e-05
2.782747462922730e-04 4.430429844280992e-04 7.342961205303311e-05
2.727911317564891e-04 4.608173721453168e-04 6.348797936261974e-05
2.616047051320347e-04 4.754982872579028e-04 5.054573546026120e-05
2.455125182665441e-04 4.749056888947445e-04 3.923611293643603e-05
2.286125494646019e-04 4.610563130218459e-04 3.172731585898703e-05
2.166334284334770e-04 4.463957095123261e-04 2.796276002214881e-05
2.132469208750432e-04 4.417129645557516e-04 2.706738506574879e-05
2.121140719879011e-04 4.401002477943949e-04 2.678216893059471e-05
2.103374948169145e-04 4.375266104105213e-04 2.634856692473875e-05
2.083142850659025e-04 4.345318562298806e-04 2.587430209644026e-05
2.065080935110264e-04 4.318032003965966e-04 2.546768441469283e-05
2.053415771690048e-04 4.300142491183712e-04 2.521314571701794e-05
1.987788097984056e-04 4.195844951947469e-04 2.389053897289273e-05
1.722563624876883e-04 3.723370456666375e-04 2.000977787197655e-05
1.279663296760991e-04 2.816983921468674e-04 1.642730890516475e-05
7.646810061304188e-05 1.674820547893363e-04 1.305332580692209e-05
3.242640378649242e-05 6.893386009410030e-05 7.724892039817632e-06
6.186280111938891e-06 1.269435721584777e-05 1.859210671639744e-06
-1.387778780781446e-17 0.000000000000000e+00 0.000000000000000e+00
-2.775557561562891e-17 0.000000000000000e+00 0.000000000000000e+00
-5.551115123125783e-17 -5.551115123125783e-17 0.000000000000000e+00
1.110223024625157e-16 0.000000000000000e+00 0.000000000000000e+00
1.110223024625157e-16 0.000000000000000e+00 1.776356839400250e-15
1.110223024625157e-16 0.000000000000000e+00 -1.776356839400250e-15
1.110223024625157e-15 -1.387778780781446e-15 -1.776356839400250e-15
8.881784197001252e-16 -1.443289932012704e-15 -3.552713678800501e-15
8.881784197001252e-16 -1.498801083243961e-15 -3.552713678800501e-15
1.110223024625157e-15 -1.554312234475219e-15 -3.552713678800501e-15
1.110223024625157e-15 -1.665334536937735e-15 -3.552713678800501e-15
1.332267629550188e-15 -1.720845688168993e-15 -3.552713678800501e-15
1.332267629550188e-15 -1.720845688168993e-15 -3.552713678800501e-15
1.332267629550188e-15 -1.831867990631508e-15 -3.552713678800501e-15
8.881784197001252e-16 -1.998401444325282e-15 -3.552713678800501e-15
1.332267629550188e-15 -2.109423746787797e-15 -3.552713678800501e-15
1.332267629550188e-15 -2.331468351712829e-15 -3.552713678800501e-15
1.332267629550188e-15 -2.442490654175344e-15 -3.552713678800501e-15
2.220446049250313e-16 0.000000000000000e+00 1.776356839400250e-15
2.220446049250313e-16 -5.551115123125783e-17 -1.776356839400250e-15
4.440892098500626e-16 -2.775557561562891e-16 -1.776356839400250e-15
5.551115123125783e-16 -4.996003610813204e-16 0.000000000000000e+00
8.881784197001252e-16 -9.436895709313831e-16 -1.776356839400250e-15
8.881784197001252e-16 -1.276756478318930e-15 -1.776356839400250e-15
8.881784197001252e-16 -4.996003610813204e-15 -1.776356839400250e-15
8.881784197001252e-16 -5.273559366969494e-15 0.000000000000000e+00
2.220446049250313e-16 -5.773159728050814e-15 0.000000000000000e+00
-4.440892098500626e-16 -6.272760089132134e-15 0.000000000000000e+00
-8.881784197001252e-16 -6.550315845288424e-15 3.552713678800501e-15
-8.881784197001252e-16 -6.716849298982197e-15 3.552713678800501e-15
1.332267629550188e-15 -2.553512956637860e-15 -3.552713678800501e-15
1.332267629550188e-15 -2.942091015256665e-15 -3.552713678800501e-15
1.332267629550188e-15 -3.552713678800501e-15 -5.329070518200751e-15
1.776356839400250e-15 -4.163336342344337e-15 -5.329070518200751e-15
1.332267629550188e-15 -4.496403249731884e-15 0.000000000000000e+00
6.661338147750939e-16 -4.829470157119431e-15 -5.329070518200751e-15
-7.919552380628025e-03 3.199108396612582e-03 1.383474826686992e-03
-7.433193417942574e-03 3.449191347548397e-03 1.210456787768877e-03
-6.711436788028102e-03 3.840328884421429e-03 9.491460597423895e-04
-5.970073186088887e-03 4.319710314439451e-03 6.302510565916464e-04
-5.399991338589927e-03 4.812954919223067e-03 2.909614940183047e-04
-5.086065606236922e-03 5.179119471063531e-03 2.929231531645371e-05
-4.317503254400612e-03 7.725085620975403e-03 -1.963732317747713e-03
-4.316268753539743e-03 7.832225992669861e-03 -2.052140399460001e-03
-4.317476151566080e-03 8.003096675650467e-03 -2.193661774116507e-03
-4.323493618051066e-03 8.201977860469500e-03 -2.359155586196593e-03
-4.333011987807001e-03 8.383437782896408e-03 -2.510837819043488e-03
-4.341225911264068e-03 8.502616653907724e-03 -2.610797389882791e-03
-4.973393198092868e-03 5.338575232039400e-03 -8.720160172082103e-05
-4.817686312083791e-03 5.595999958939224e-03 -2.782867771475850e-04
-4.613200388849825e-03 6.039441111937216e-03 -6.153203313044031e-04
-4.442722631096796e-03 6.610169491174545e-03 -1.061497815406653e-03
-4.349966689609519e-03 7.185315035678652e-03 -1.522570264780754e-03
-4.321281325377346e-03 7.592469423072123e-03 -1.854670492598132e-03
-1.340911465138950e-02 -3.502572280910873e-03 7.579354614446032e-03
-1.290810986698232e-02 -1.877533769977180e-03 5.969204336158995e-03
-1.188465132341499e-02 7.079480027499807e-05 4.080529882383388e-03
-1.048213485861604e-02 1.599892182906737e-03 2.669941348734994e-03
-9.130869330014946e-03 2.542626747344956e-03 1.875171995120439e-03
-8.257193383961914e-03 3.024444084233080e-03 1.508640379709547e-03
-7.627351775490482e-03 -1.081105299628093e-02 -4.091989309280564e-03
-7.198851364364489e-03 -1.125683397999699e-02 -3.611204768311893e-03
-6.166553373436801e-03 -1.089288541267064e-02 -2.785277608897019e-03
-4.393044907675100e-03 -8.628352990971755e-03 -1.762059626212675e-03
-2.210978213176507e-03 -4.678493619118984e-03 -7.980601377930441e-04
-4.753499556455452e-04 -1.047590437782242e-03 -1.603064729422954e-04
-4.357352555121818e-03 8.684326547664711e-03 -2.768788522597987e-03
-4.438053604849279e-03 9.134314580139469e-03 -3.271348000726704e-03
-4.635945326937674e-03 9.360388137997555e-03 -3.958383028622947e-03
-4.946768659183864e-03 8.995844198967151e-03 -4.599360646716733e-03
-5.280984739751471e-03 8.199912370985718e-03 -5.053021442295247e-03
-5.516667712850198e-03 7.488021762253716e-03 -5.290266725705095e-03
-5.633219975404002e-03 7.099986749128706e-03 -5.388931442498190e-03
-5.862250215944220e-03 6.276632914738123e-03 -5.552883219438698e-03
-6.226593560497706e-03 4.814900990399495e-03 -5.744126798262528e-03
-6.635090986633063e-03 2.959719886910239e-03 -5.870340325996537e-03
-6.980182487877795e-03 1.193759907036185e-03 -5.906843338737033e-03
-7.187326047727149e-03 2.454088966352685e-05 -5.894876513728775e-03
-7.307602650621192e-03 -7.024807767185282e-04 -5.874253305179877e-03
-7.567455034177273e-03 -2.441501669018797e-03 -5.785444474330603e-03
-7.872228330010833e-03 -5.059626139076179e-03 -5.542615162593023e-03
-8.024947320319331e-03 -7.697492515515991e-03 -5.128927753684565e-03
-7.945696502331179e-03 -9.565530891368801e-03 -4.652679325776177e-03
-7.768966631292618e-03 -1.045180773359067e-02 -4.298505273482078e-03
        </DataArray>
        <DataArray type="Float64" Name="projection_direction" NumberOfComponents="3" format="ascii">
5.720793234964550e-05 2.146494306500130e-04 -9.889172153165759e-05
-6.820283676112204e-05 -1.514896121324050e-07 -5.184361459242837e-06
-6.578841389881518e-06 -1.185017125375776e-04 5.567914307391675e-05
4.811919086378236e-05 -7.108949081713334e-05 3.820085219885527e-05
1.849665912967424e-05 8.822688270071488e-06 -5.446003161324597e-06
5.407879095542523e-05 9.315170905660475e-05 -2.278676566369597e-05
7.528642625731496e-05 1.242197405891821e-04 -2.466435865500216e-05
5.056756167909349e-05 1.170518402336951e-04 -2.845719979838179e-05
1.683296938914669e-05 1.075482838002184e-04 -3.406763295288329e-05
-1.490404972459558e-05 9.906691629935072e-05 -3.994821486941191e-05
-3.797611413314250e-05 9.335992881087662e-05 -4.473479554967241e-05
-5.054550982264150e-05 9.050404267041401e-05 -4.759193801540107e-05
-5.669964609855693e-05 8.833593176271748e-05 -5.175349278907504e-05
-5.656831859257583e-05 8.810191394759137e-05 -6.022686347861850e-05
-3.337217777510393e-05 9.398853177233768e-05 -5.845963663020370e-05
-4.980465631465592e-06 8.657453606897292e-05 -3.990787557484055e-05
5.859432174903922e-06 5.458801432900451e-05 -1.361204485483825e-05
4.712236269077685e-06 2.156625841842619e-05 6.330329505033205e-06
2.598129565933860e-06 1.046242878999237e-06 1.778319240308690e-05
1.255093545537989e-06 -3.901913849280181e-05 3.904755657835324e-05
-4.316327218534255e-06 -9.607881942075291e-05 5.709616164573106e-05
-2.093292461624596e-05 -1.529748085892235e-04 5.016019569659136e-05
-2.505177741662923e-05 -1.632371021184076e-04 1.639131396480309e-05
-6.509464981374613e-06 -1.194599830771637e-04 -1.968223428860938e-05
1.102492402205169e-06 -1.009132412881364e-04 -3.050256183101396e-05
-2.960358803150154e-06 -1.080169547487131e-04 -3.082851078772819e-05
-8.543711248365504e-06 -1.178510598975890e-04 -3.135661878950202e-05
-1.382904656593853e-05 -1.272291431374528e-04 -3.198133892645671e-05
-1.767620979092888e-05 -1.340808030428908e-04 -3.255816312019988e-05
-1.976319937352367e-05 -1.377937305481192e-04 -3.293949958838027e-05
-8.254955563391508e-06 -1.061145410797826e-04 -2.783612533541202e-05
3.733397299565677e-05 4.874693961931520e-05 -1.278704154827892e-05
3.415235679332662e-05 2.022687660760969e-04 -2.665828150227867e-06
-2.602342855873019e-05 6.944739239533870e-05 -8.767153616418000e-07
-1.134657164332531e-05 -1.366606740799137e-04 -9.775272609147123e-07
6.592605969864274e-06 -6.846796588688697e-05 -2.969802253005582e-07
-6.938893903907228e-17 -1.110223024625157e-16 0.000000000000000e+00
-5.551115123125783e-17 -1.665334536937735e-16 0.000000000000000e+00
5.551115123125783e-17 -5.551115123125783e-17 -5.329070518200751e-15
-1.110223024625157e-16 0.000000000000000e+00 -1.776356839400250e-15
-1.665334536937735e-16 -5.551115123125783e-17 -3.552713678800501e-15
-1.665334536937735e-16 0.000000000000000e+00 3.552713678800501e-15
4.440892098500626e-16 -2.775557561562891e-16 5.329070518200751e-15
6.661338147750939e-16 -1.110223024625157e-16 3.552713678800501e-15
6.661338147750939e-16 -1.110223024625157e-16 7.105427357601002e-15
6.661338147750939e-16 -1.665334536937735e-16 5.329070518200751e-15
0.000000000000000e+00 -1.110223024625157e-16 3.552713678800501e-15
-2.220446049250313e-16 -1.665334536937735e-16 3.552713678800501e-15
2.220446049250313e-16 -5.551115123125783e-17 5.329070518200751e-15
2.220446049250313e-16 -1.110223024625157e-16 0.000000000000000e+00
6.661338147750939e-16 -5.551115123125783e-17 5.329070518200751e-15
4.440892098500626e-16 -5.551115123125783e-17 7.105427357601002e-15
0.000000000000000e+00 0.000000000000000e+00 1.776356839400250e-15
2.220446049250313e-16 0.000000000000000e+00 3.552713678800501e-15
-3.330669073875470e-16 0.000000000000000e+00 -3.552713678800501e-15
-2.220446049250313e-16 0.000000000000000e+00 1.776356839400250e-15
-2.220446049250313e-16 0.000000000000000e+00 1.776356839400250e-15
1.110223024625157e-16 -1.110223024625157e-16 -1.776356839400250e-15
-1.110223024625157e-16 -1.110223024625157e-16 3.552713678800501e-15
3.330669073875470e-16 -1.110223024625157e-16 -3.552713678800501e-15
0.000000000000000e+00 1.665334536937735e-16 3.552713678800501e-15
0.000000000000000e+00 0.000000000000000e+00 3.552713678800501e-15
2.220446049250313e-16 -1.110223024625157e-16 1.776356839400250e-15
6.661338147750939e-16 -5.551115123125783e-17 1.776356839400250e-15
2.220446049250313e-16 5.551115123125783e-17 -1.776356839400250e-15
-8.881784197001252e-16 2.220446049250313e-16 -3.552713678800501e-15
2.220446049250313e-16 5.551115123125783e-17 3.552713678800501e-15
2.220446049250313e-16 1.110223024625157e-16 3.552713678800501e-15
0.000000000000000e+00 2.775557561562891e-16 5.329070518200751e-15
-2.220446049250313e-16 2.775557561562891e-16 5.329070518200751e-15
0.000000000000000e+00 2.220446049250313e-16 3.552713678800501e-15
6.661338147750939e-16 1.665334536937735e-16 5.329070518200751e-15
1.005961633992103e-02 4.883314165707309e-03 -1.151847283189511e-04
5.573279237918394e-03 3.081766251706530e-03 -1.557083726577702e-04
1.725180585042674e-04 6.384097161261648e-04 -2.629122082833391e-04
-3.702841887385344e-03 -1.404368642098586e-03 -3.999577045803449e-04
-5.266733078164831e-03 -2.395805422967134e-03 -4.867744349414949e-04
-5.390719742609518e-03 -2.547281183519656e-03 -5.040058202734343e-04
7.133567950096120e-03 8.179184403063644e-03 -7.700666965817504e-04
6.518436755344137e-03 7.448782362615369e-03 -7.127967701325844e-04
5.599765952438385e-03 6.324024959152519e-03 -6.198968616129008e-04
4.619663071273150e-03 5.073603466499654e-03 -5.094688093514321e-04
3.801921670063879e-03 3.984456708614803e-03 -4.066781492380045e-04
3.301535701697667e-03 3.294537406795417e-03 -3.381637573252050e-04
-5.075610139568809e-03 -2.345715029515860e-03 -5.302630074446313e-04
-3.964789374870326e-03 -1.524591909458750e-03 -6.333120253270152e-04
-1.809651728096884e-03 1.651236218085383e-04 -7.558018990394544e-04
1.221578779331822e-03 2.719857115163093e-03 -8.303314979674070e-04
4.409340329725620e-03 5.601231606312429e-03 -8.317755421458628e-04
6.693280172068938e-03 7.778447337875249e-03 -7.972306539478780e-04
5.816170355136818e-03 2.984381294817234e-03 -1.413075902117811e-03
1.838697174251225e-04 4.019822987844646e-04 -3.389131418014557e-04
-4.324837949723603e-03 -2.083977116249858e-03 5.979289659396869e-04
-3.305101806784005e-03 -2.149071777140354e-03 7.942922923511730e-04
2.869912640968808e-03 7.256463900577881e-04 4.218203986834368e-04
9.379330658965568e-03 4.252355147709941e-03 6.968691563358220e-06
-2.000836701700454e-03 -2.556285054817975e-03 -6.161696430275754e-04
-1.959827370854150e-03 -3.866281052710141e-03 -4.183365296341890e-04
-1.555117637419973e-03 -4.653502307087165e-03 -1.780680841640958e-04
-8.555676856074473e-04 -3.938621594719582e-03 -1.255038348801918e-05
-2.762666719591106e-04 -2.117742775435749e-03 3.413828380161021e-05
-3.532893228032179e-05 -4.629636724725605e-04 1.203619273582035e-05
2.552925349282531e-03 2.234705430542938e-03 -2.297090419975945e-04
3.555948079113636e-04 -1.002210988157559e-03 1.046539287568038e-04
-2.108941546163812e-03 -4.975917092955195e-03 5.279706601140077e-04
-3.634025563599264e-03 -7.899183566295820e-03 8.698156880146968e-04
-4.012699631973815e-03 -9.106189594650482e-03 1.058601085361488e-03
-3.836023305470282e-03 -9.199521182841952e-03 1.126334672884255e-03
-3.513387100962162e-03 -8.726147862738509e-03 1.113128135438402e-03
-2.454264677943629e-03 -6.776981721323461e-03 9.980825086781664e-04
-4.531465290619208e-04 -2.826305576461907e-03 7.602956718084641e-04
2.209323817477293e-03 2.976468385574083e-03 4.137028871742388e-04
4.810535417659079e-03 9.305655960832215e-03 4.537023498407677e-05
6.550583197751758e-03 1.395977720021468e-02 -2.181020734965955e-04
6.304738606256466e-03 1.402243499739608e-02 -2.530126911182151e-04
3.883136453012415e-03 9.782437206705463e-03 -1.577838727371272e-04
1.061983844896364e-03 4.559267888542551e-03 -1.268481468557070e-04
-9.145555191916177e-04 5.494365873536244e-04 -2.398722014405053e-04
-1.775196899829801e-03 -1.464856997205999e-03 -4.470117725503542e-04
-1.965865588577420e-03 -2.057255752144771e-03 -6.224767557014843e-04
        </DataArray>
        <DataArray type="Int32" Name="uid_0_pair_beam_id" format="ascii">
275
275
275
275
275
275
275
275
275
275
275
275
275
275
275
275
275
275
276
276
276
276
276
276
276
276
276
276
276
276
276
276
276
276
276
276
277
277
277
277
277
277
277
277
277
277
277
277
277
277
277
277
277
277
277
277
277
277
277
277
278
278
278
278
278
278
278
278
278
278
278
278
279
279
279
279
279
279
279
279
279
279
279
279
279
279
279
279
279
279
279
279
279
279
279
279
280
280
280
280
280
280
280
280
280
280
280
280
280
280
280
280
280
280
280
280
280
280
280
280
        </DataArray>
        <DataArray type="Int32" Name="uid_1_pair_solid_id" format="ascii">
34
34
34
34
34
34
35
35
35
35
35
35
38
38
38
38
38
38
38
38
38
38
38
38
39
39
39
39
39
39
42
42
42
42
42
42
44
44
44
44
44
44
48
48
48
48
48
48
47
47
47
47
47
47
46
46
46
46
46
46
49
49
49
49
49
49
47
47
47
47
47
47
58
58
58
58
58
58
65
65
65
65
65
65
83
83
83
83
83
83
98
98
98
98
98
98
51
51
51
51
51
51
65
65
65
65
65
65
69
69
69
69
69
69
93
93
93
93
93
93
        </DataArray>
      </PointData>

    </Piece>
  </UnstructuredGrid>
</VTKFile>
