<?xml version="1.0" ?> 
<!-- 
# vtk DataFile Version 3.0
-->
<VTKFile type="UnstructuredGrid" version="0.1" compressor="vtkZLibDataCompressor" byte_order="LittleEndian">
  <UnstructuredGrid>
    <FieldData>
      <DataArray type="Float64" Name="TIME" NumberOfTuples="1" format="ascii">
3.000000000000000e+00 
      </DataArray>
    </FieldData>

    <Piece NumberOfPoints="120" NumberOfCells="20" >
      <Points>
        <DataArray type="Float64" NumberOfComponents="3" format="ascii">
9.973931072026406e-01 7.070273512785413e-02 1.000000000000000e+01
9.866136483990291e-01 1.604856085406817e-01 1.009053228542930e+01
9.677380497720580e-01 2.489458430506831e-01 1.018107427169750e+01
9.410473093875842e-01 3.354050493162016e-01 1.027162216241490e+01
9.068224253114635e-01 4.191848379955807e-01 1.036217216119180e+01
8.653443956095521e-01 4.996068197471639e-01 1.045272047163852e+01
8.653443956095521e-01 4.996068197471640e-01 1.045272047163852e+01
8.606057705830016e-01 5.077844949057552e-01 1.046217651424412e+01
8.557914246224535e-01 5.159173770349559e-01 1.047163249270714e+01
8.509016777832743e-01 5.240046934527594e-01 1.048108840270351e+01
8.459368501208309e-01 5.320456714771585e-01 1.049054423990915e+01
8.408972616904897e-01 5.400395384261464e-01 1.050000000000000e+01
8.408972616904891e-01 5.400395384261474e-01 1.050000000000000e+01
8.170876849891512e-01 5.757158235680651e-01 1.054292534228490e+01
7.917739045678236e-01 6.103329816750592e-01 1.058584860164233e+01
7.649858644468163e-01 6.438187214871802e-01 1.062876937351733e+01
7.367535086464384e-01 6.761007517444773e-01 1.067168725335488e+01
7.071067811870000e-01 7.071067811870000e-01 1.071460183660000e+01
7.071067811870000e-01 7.071067811870000e-01 1.071460183660000e+01
6.690967767716192e-01 7.430949925337622e-01 1.076697002744292e+01
6.292104186336189e-01 7.769672706543244e-01 1.081934299447397e+01
5.875790665592658e-01 8.086692045436573e-01 1.087172000257996e+01
5.443340803348262e-01 8.381463831967312e-01 1.092410031664769e+01
4.996068197465661e-01 8.653443956085163e-01 1.097648320156397e+01
4.996068197465658e-01 8.653443956085163e-01 1.097648320156397e+01
4.955229120705004e-01 8.676730276522646e-01 1.098118653378206e+01
4.914282091247535e-01 8.699828082656245e-01 1.098588988026678e+01
4.873228059880311e-01 8.722736980657068e-01 1.099059324048607e+01
4.832067977390389e-01 8.745456576696220e-01 1.099529661390783e+01
4.790802794564825e-01 8.767986476944808e-01 1.100000000000000e+01
4.790802794564811e-01 8.767986476944815e-01 1.100000000000000e+01
3.890256016956313e-01 9.201415524538572e-01 1.110000948404963e+01
2.951762298468827e-01 9.545117333406207e-01 1.120001934101234e+01
1.984461689329109e-01 9.795305970782481e-01 1.130002445595023e+01
9.974942397639149e-02 9.948195503902159e-01 1.140001971392541e+01
7.410977078995740e-17 1.000000000000000e+00 1.150000000000000e+01
1.000000000000000e-01 3.000000000000000e-01 1.250000000000000e+01
1.800000000000127e-01 3.000000000000000e-01 1.254190476190473e+01
2.600000000000177e-01 3.000000000000000e-01 1.258380952380947e+01
3.400000000000163e-01 3.000000000000000e-01 1.262571428571423e+01
4.200000000000100e-01 3.000000000000000e-01 1.266761904761900e+01
5.000000000000001e-01 3.000000000000000e-01 1.270952380952378e+01
1.000000000000000e+00 3.000000000000000e-01 1.297142857142863e+01
1.010909090909073e+00 2.999999999999999e-01 1.297714285714290e+01
1.021818181818145e+00 3.000000000000000e-01 1.298285714285718e+01
1.032727272727218e+00 3.000000000000000e-01 1.298857142857145e+01
1.043636363636291e+00 3.000000000000000e-01 1.299428571428572e+01
1.054545454545364e+00 3.000000000000000e-01 1.300000000000000e+01
1.054545454545370e+00 3.000000000000000e-01 1.300000000000000e+01
1.073636363636295e+00 3.000000000000000e-01 1.301000000000000e+01
1.092727272727220e+00 3.000000000000000e-01 1.302000000000000e+01
1.111818181818146e+00 3.000000000000000e-01 1.303000000000000e+01
1.130909090909073e+00 3.000000000000000e-01 1.304000000000000e+01
1.150000000000000e+00 3.000000000000000e-01 1.305000000000000e+01
5.000000000000000e-01 3.000000000000000e-01 1.270952380952378e+01
5.999999999999960e-01 3.000000000000000e-01 1.276190476190475e+01
6.999999999999913e-01 3.000000000000000e-01 1.281428571428573e+01
7.999999999999886e-01 3.000000000000000e-01 1.286666666666671e+01
8.999999999999907e-01 2.999999999999999e-01 1.291904761904767e+01
1.000000000000000e+00 3.000000000000000e-01 1.297142857142863e+01
1.500000000000000e+00 3.000000000000000e-01 1.323333333333329e+01
1.599999999999999e+00 3.000000000000000e-01 1.328571428571426e+01
1.699999999999996e+00 3.000000000000000e-01 1.333809523809524e+01
1.799999999999993e+00 3.000000000000000e-01 1.339047619047622e+01
1.899999999999993e+00 3.000000000000000e-01 1.344285714285720e+01
2.000000000000000e+00 3.000000000000000e-01 1.349523809523816e+01
1.150000000000000e+00 3.000000000000000e-01 1.305000000000000e+01
1.220000000000010e+00 3.000000000000000e-01 1.308666666666664e+01
1.290000000000014e+00 3.000000000000000e-01 1.312333333333329e+01
1.360000000000013e+00 3.000000000000000e-01 1.315999999999995e+01
1.430000000000008e+00 2.999999999999999e-01 1.319666666666661e+01
1.500000000000000e+00 3.000000000000000e-01 1.323333333333329e+01
9.099418396092163e-01 4.123520859599071e-01 1.535465927548244e+01
8.922842954237609e-01 4.494116351566335e-01 1.539572377802105e+01
8.731564437274878e-01 4.857289022324833e-01 1.543678764402081e+01
8.525844932065541e-01 5.212406138218787e-01 1.547785051939248e+01
8.305946525471162e-01 5.558834965592417e-01 1.551891205004683e+01
8.072131304353310e-01 5.895942770789949e-01 1.555997188189463e+01
7.282911557660177e-01 6.852367478256445e-01 1.568414612346445e+01
7.241105771358123e-01 6.896638407006590e-01 1.569023740828026e+01
7.199017647365406e-01 6.940645971943973e-01 1.569632862315857e+01
7.156648041944699e-01 6.984388105867640e-01 1.570241976694252e+01
7.113997811358671e-01 7.027862741576633e-01 1.570851083847528e+01
7.071067811870000e-01 7.071067811870000e-01 1.571460183660000e+01
8.072131304353318e-01 5.895942770789941e-01 1.555997188189463e+01
7.924048381786581e-01 6.095072492977918e-01 1.558480854611072e+01
7.771026932926023e-01 6.290419880367565e-01 1.560964438075337e+01
7.613124970679515e-01 6.481844877409870e-01 1.563447930744495e+01
7.450400507954943e-01 6.669207428555832e-01 1.565931324780786e+01
7.282911557660177e-01 6.852367478256445e-01 1.568414612346445e+01
9.974188365449632e-01 7.035216465623575e-02 1.499964823725036e+01
9.896856895188083e-01 1.408498148485315e-01 1.507064114959732e+01
9.769359111055309e-01 2.106257705826849e-01 1.514164054032042e+01
9.593050065117563e-01 2.793528933510576e-01 1.521264457869325e+01
9.369284809441096e-01 3.467040446460115e-01 1.528365143398939e+01
9.099418396092160e-01 4.123520859599080e-01 1.535465927548244e+01
2.540680715836868e-01 9.663884211005245e-01 1.624282971409468e+01
2.040742312389913e-01 9.783511829326830e-01 1.629427022398971e+01
1.535461056049211e-01 9.877452492031026e-01 1.634570820368322e+01
1.026080929848299e-01 9.945190924473902e-01 1.639714295701975e+01
5.138459168207161e-02 9.986211852011536e-01 1.644857378784383e+01
0.000000000000000e+00 1.000000000000000e+00 1.650000000000000e+01
7.071067811870000e-01 7.071067811870000e-01 1.571460183660000e+01
6.838313695108698e-01 7.296072446419970e-01 1.574698374391793e+01
6.598193240044187e-01 7.513065748860335e-01 1.577936758478894e+01
6.351017039401895e-01 7.721919067471822e-01 1.581175318539972e+01
6.097095685907250e-01 7.922503750535171e-01 1.584414037193693e+01
5.836739772285680e-01 8.114691146331118e-01 1.587652897058727e+01
5.836739772285678e-01 8.114691146331119e-01 1.587652897058727e+01
5.593457432745246e-01 8.282864303983598e-01 1.590612753141416e+01
5.345298143755571e-01 8.443819496070234e-01 1.593572699367424e+01
5.092498921899732e-01 8.597458547107798e-01 1.596532722472874e+01
4.835296783760801e-01 8.743683281613056e-01 1.599492809193889e+01
4.573928745921857e-01 8.882395524102780e-01 1.602452946266590e+01
4.573928745921856e-01 8.882395524102780e-01 1.602452946266590e+01
4.181330855877529e-01 9.073065334328176e-01 1.606818960163606e+01
3.780946642285054e-01 9.246864103280585e-01 1.611185012183434e+01
3.373536570706244e-01 9.403476835810543e-01 1.615551059769042e+01
2.959861106702907e-01 9.542588536768586e-01 1.619917060363398e+01
2.540680715836858e-01 9.663884211005248e-01 1.624282971409469e+01
        </DataArray>
      </Points>

      <Cells>
        <DataArray type="Int32" Name="connectivity" format="ascii">
0 1 2 3 4 5 6 7 8 9 10 11 12 13 14 15 16 17 18 19 20 21 22 23 24 25 26 27 28 29 30 31 32 33 34 35 36 37 38 39 40 41 42 43 44 45 46 47 48 49 50 51 52 53 54 55 56 57 58 59 60 61 62 63 64 65 66 67 68 69 70 71 72 73 74 75 76 77 78 79 80 81 82 83 84 85 86 87 88 89 90 91 92 93 94 95 96 97 98 99 100 101 102 103 104 105 106 107 108 109 110 111 112 113 114 115 116 117 118 119 
        </DataArray>
        <DataArray type="Int32" Name="offsets" format="ascii">
6 12 18 24 30 36 42 48 54 60 66 72 78 84 90 96 102 108 114 120 
        </DataArray>
        <DataArray type="UInt8" Name="types" format="ascii">
4 4 4 4 4 4 4 4 4 4 4 4 4 4 4 4 4 4 4 4 
        </DataArray>
      </Cells>

  <PointData>
        <DataArray type="Float64" Name="displacement" NumberOfComponents="3" format="ascii">
3.486805433187189e-01 3.559236958972066e-01 3.732706488572646e-02
2.746388884408066e-01 3.240502340298886e-01 2.407137809607285e-02
2.120402853408880e-01 2.927386463161705e-01 1.390038106583447e-02
1.597810357644351e-01 2.620133203177211e-01 6.388815185529140e-03
1.167574414569200e-01 2.318986435962079e-01 1.111421845690685e-03
8.186580416381484e-02 2.024190037132992e-01 -2.357057563170173e-03
8.186580416381462e-02 2.024190037132991e-01 -2.357057563168397e-03
7.864626295618682e-02 1.993779455257071e-01 -2.632167027313059e-03
7.550211760209191e-02 1.963441070578452e-01 -2.892670168547440e-03
7.243211099483704e-02 1.933175160870223e-01 -3.139051354256850e-03
6.943498602772791e-02 1.902982003905470e-01 -3.371794951837259e-03
6.650948559407099e-02 1.872861877457282e-01 -3.591385328677532e-03
6.650948559407066e-02 1.872861877457280e-01 -3.591385328679308e-03
5.409472882469513e-02 1.737051093943635e-01 -4.436146198354862e-03
4.301256000953446e-02 1.602777108218524e-01 -5.065131691925018e-03
3.314536565951154e-02 1.470065908419608e-01 -5.523658678038501e-03
2.437553228554945e-02 1.338943482684551e-01 -5.857044025333380e-03
1.658544639857107e-02 1.209435819151021e-01 -6.110604602449499e-03
1.658544639857107e-02 1.209435819151021e-01 -6.110604602449499e-03
8.504425030292917e-03 1.057315562551991e-01 -6.227029473210521e-03
2.073130879228335e-03 9.150838737065425e-02 -6.051437489590583e-03
-2.859173171257057e-03 7.828156105873685e-02 -5.633958690214769e-03
-6.443224237797529e-03 6.605856311671654e-02 -5.024723113715268e-03
-8.829759437027240e-03 5.484687934186283e-02 -4.273860798720719e-03
-8.829759437027185e-03 5.484687934186283e-02 -4.273860798718943e-03
-8.990586428310188e-03 5.388996320241912e-02 -4.201223679514143e-03
-9.143083955124809e-03 5.294126549982126e-02 -4.127885247321217e-03
-9.287361121561533e-03 5.200079165231697e-02 -4.053881786454383e-03
-9.423527031710122e-03 5.106854707815478e-02 -3.979249581222533e-03
-9.551690789660672e-03 5.014453719558265e-02 -3.904024915934556e-03
-9.551690789660672e-03 5.014453719558243e-02 -3.904024915934556e-03
-1.058306320858837e-02 3.245642180230957e-02 -2.230899734403380e-03
-9.094747316260920e-03 1.854582400185989e-02 -6.551284580211814e-04
-6.135576135503501e-03 8.464830178488203e-03 4.744827191895951e-04
-2.754382689141424e-03 2.265526716450084e-03 8.091276032047290e-04
-6.794428064303513e-19 0.000000000000000e+00 0.000000000000000e+00
0.000000000000000e+00 0.000000000000000e+00 0.000000000000000e+00
-2.791807202090740e-03 3.028281947290323e-03 -1.463590205883492e-04
-7.452493796069493e-03 1.208291199978329e-02 1.048657504243877e-03
-1.387465655125764e-02 2.671496077832025e-02 3.389594185605915e-03
-2.195089223697649e-02 4.647549890374253e-02 6.680995634614106e-03
-3.157379762254731e-02 7.091559699689137e-02 1.072740646236703e-02
-1.200669669457255e-01 3.017170859198583e-01 4.094536844827346e-02
-1.224274440952274e-01 3.077715331700540e-01 4.148983341683454e-02
-1.248019298262194e-01 3.138513366990426e-01 4.202149206972372e-02
-1.271901517976767e-01 3.199553581622305e-01 4.253984879316874e-02
-1.295918376685743e-01 3.260824592150232e-01 4.304440797338849e-02
-1.320067150978889e-01 3.322315015128272e-01 4.353467399660182e-02
-1.320067150978901e-01 3.322315015128305e-01 4.353467399660538e-02
-1.362636736359026e-01 3.430416977277227e-01 4.435675591488319e-02
-1.405587376995001e-01 3.539095020095838e-01 4.513089104256629e-02
-1.448904477110049e-01 3.648288135428547e-01 4.585442319955746e-02
-1.492573440927391e-01 3.757935315119772e-01 4.652469620577904e-02
-1.536579672670246e-01 3.867975551013925e-01 4.713905388113915e-02
-3.157379762254720e-02 7.091559699689143e-02 1.072740646236880e-02
-4.561381151069244e-02 1.073624349668854e-01 1.654938786692917e-02
-6.169290732200228e-02 1.495428180378488e-01 2.286392357422251e-02
-7.960131312155705e-02 1.965799310161117e-01 2.928926477782667e-02
-9.912925697443797e-02 2.475969587080049e-01 3.544366267132126e-02
-1.200669669457252e-01 3.017170859198584e-01 4.094536844827523e-02
-2.430617022767569e-01 6.102442515426234e-01 4.816309144390729e-02
-2.718453033871715e-01 6.814305304399277e-01 4.491558424721376e-02
-3.021473261813203e-01 7.556035523596494e-01 4.010936810657384e-02
-3.340106244692604e-01 8.326119975859243e-01 3.375244162407753e-02
-3.674780520610490e-01 9.123045464028900e-01 2.585280340180951e-02
-4.025924627667423e-01 9.945298790946833e-01 1.641845204186509e-02
-1.536579672670246e-01 3.867975551013925e-01 4.713905388113915e-02
-1.701808508938656e-01 4.281001769308791e-01 4.889569591189868e-02
-1.873679673514097e-01 4.711480601522866e-01 4.987367716304014e-02
-2.052340154965064e-01 5.158893021030737e-01 5.007574115507651e-02
-2.237936941860059e-01 5.622720001206996e-01 4.950463140852968e-02
-2.430617022767572e-01 6.102442515426232e-01 4.816309144390729e-02
5.752649727852643e-02 1.159627171160635e-01 4.474766611833658e-03
4.885059780681489e-02 1.106103950323378e-01 3.475629303126837e-03
4.113699979475038e-02 1.052540944629158e-01 2.572207010306471e-03
3.424400186232890e-02 9.990674494343543e-02 1.716406215031441e-03
2.802990262954752e-02 9.458127600953503e-02 8.601333989552984e-04
2.235300071640178e-02 8.929061719685205e-02 -4.470495625952253e-05
7.007915404581677e-03 7.363233139290093e-02 -3.567280723093091e-03
6.279282813132170e-03 7.288166804334895e-02 -3.786239774312250e-03
5.549458715192190e-03 7.213295909397999e-02 -4.010686932767626e-03
4.817980158893009e-03 7.138624678681493e-02 -4.240779324554467e-03
4.084384192366231e-03 7.064157336387522e-02 -4.476674075762688e-03
3.348207863743236e-03 6.989898106718151e-02 -4.718528312483983e-03
2.235300071640167e-02 8.929061719685216e-02 -4.470495626307525e-05
1.912000619375687e-02 8.611257442969023e-02 -6.358991399721958e-04
1.600036599148158e-02 8.295486251393436e-02 -1.273108311698579e-03
1.296271451934683e-02 7.982034340136468e-02 -1.966977968251626e-03
9.975686187123189e-03 7.671187904376031e-02 -2.728153606446071e-03
7.007915404581677e-03 7.363233139290093e-02 -3.567280723093091e-03
1.936306982105691e-01 1.601589222699939e-01 2.422070340514892e-02
1.554120998589178e-01 1.518218846608536e-01 1.791960550331773e-02
1.234250107820938e-01 1.431668965340593e-01 1.304311792207358e-02
9.693680078789169e-02 1.342608066964422e-01 9.342585612406751e-03
7.521483968410458e-02 1.251704639548332e-01 6.569353525327060e-03
5.752649727852632e-02 1.159627171160636e-01 4.474766611835435e-03
-1.340221939805053e-02 -1.223193154062052e-03 -4.604126116610985e-03
-1.136354609376306e-02 -4.434612531473925e-03 -3.499929637047927e-03
-8.939067191175404e-03 -6.127996229962740e-03 -2.431290052953727e-03
-6.193703000926407e-03 -6.093350924339491e-03 -1.454336096983866e-03
-3.192373833654970e-03 -4.120683289414950e-03 -6.251965017796124e-04
0.000000000000000e+00 0.000000000000000e+00 0.000000000000000e+00
3.348207863743236e-03 6.989898106718151e-02 -4.718528312483983e-03
-3.543194011307316e-04 6.579734572192009e-02 -5.904383613211550e-03
-3.629999558630082e-03 6.141174629249679e-02 -6.867553210385680e-03
-6.495041653149625e-03 5.679461307533351e-02 -7.622051102257998e-03
-8.965654729084060e-03 5.199837636685234e-02 -8.181891287062371e-03
-1.105804783082820e-02 4.707546646347427e-02 -8.561087763055752e-03
-1.105804783082809e-02 4.707546646347427e-02 -8.561087763055752e-03
-1.265315931021904e-02 4.251055541209958e-02 -8.761545355726597e-03
-1.395833416243775e-02 3.792365615749771e-02 -8.833549037131405e-03
-1.498594168013928e-02 3.335477881159410e-02 -8.787793037072333e-03
-1.574835115597895e-02 2.884393348631420e-02 -8.634971585342655e-03
-1.625793188261193e-02 2.443113029358279e-02 -8.385778911744524e-03
-1.625793188261188e-02 2.443113029358301e-02 -8.385778911744524e-03
-1.657422070002390e-02 1.818614682473341e-02 -7.864957949784923e-03
-1.640710709673138e-02 1.236985066352125e-02 -7.192069849761396e-03
-1.579627783627657e-02 7.110613891969320e-03 -6.401426951214262e-03
-1.478141968220209e-02 2.536808592100592e-03 -5.527341593655422e-03
-1.340221939805050e-02 -1.223193154062163e-03 -4.604126116610985e-03
        </DataArray>
        <DataArray type="Float64" Name="lambda" NumberOfComponents="3" format="ascii">
4.539868282704296e-02 3.047814663098215e-03 1.074373502477102e-03
2.934607898943509e-02 -7.657376256900764e-04 -1.922565027018617e-03
1.650452843435395e-02 -3.351172218514190e-03 -4.095204122298192e-03
6.874031161799549e-03 -4.708489115374128e-03 -5.443543783361628e-03
4.545871717718743e-04 -4.837688316269889e-03 -5.967584010208920e-03
-2.753803535729064e-03 -3.738769821201474e-03 -5.667324802840071e-03
-2.753803535729066e-03 -3.738769821201473e-03 -5.667324802840072e-03
-2.903686027188622e-03 -3.553180120497715e-03 -5.588430247772052e-03
-3.018547505910619e-03 -3.354196084138542e-03 -5.500545558176421e-03
-3.098387971895058e-03 -3.141817712123955e-03 -5.403670734053176e-03
-3.143207425141938e-03 -2.916045004453954e-03 -5.297805775402320e-03
-3.153005865651256e-03 -2.676877961128537e-03 -5.182950682223851e-03
-3.153005865651254e-03 -2.676877961128503e-03 -5.182950682223834e-03
-2.757121492288662e-03 -1.422703324890960e-03 -4.548496503090504e-03
-1.639489492828131e-03 1.075150121641333e-04 -3.728764750683391e-03
1.998901327303335e-04 1.913777050036772e-03 -2.723755425002493e-03
2.761017384386737e-03 3.996082788726958e-03 -1.533468526047809e-03
6.043892262141078e-03 6.354432228234693e-03 -1.579040538193420e-04
6.043892262141078e-03 6.354432228234693e-03 -1.579040538193420e-04
4.278592285106303e-03 4.419813064609899e-03 -3.830370491370749e-04
2.773537330624801e-03 2.783721412635548e-03 -5.382448321613665e-04
1.528727398696573e-03 1.446157272311644e-03 -6.235274028922169e-04
5.441624893216168e-04 4.071206436381826e-04 -6.388847613296263e-04
-1.801573975000654e-04 -3.333884733848340e-04 -5.843169074735944e-04
-1.801573975000666e-04 -3.333884733848352e-04 -5.843169074735942e-04
-2.324588186457885e-04 -3.852705395547214e-04 -5.759965069457094e-04
-2.826622840742250e-04 -4.347460371236433e-04 -5.671124068800811e-04
-3.307677937853770e-04 -4.818149660916015e-04 -5.576646072767088e-04
-3.767753477792442e-04 -5.264773264585959e-04 -5.476531081355931e-04
-4.206849460558266e-04 -5.687331182246261e-04 -5.370779094567336e-04
-4.206849460558397e-04 -5.687331182246390e-04 -5.370779094567301e-04
-8.577717528384915e-04 -8.976108695125632e-04 -1.787990251625189e-04
-3.463530351990212e-04 -1.384563071969761e-04 4.343337253305810e-04
1.113571206862571e-03 1.708730568722122e-03 1.302320342022570e-03
3.522000973346285e-03 4.643949758244731e-03 2.425160824913447e-03
6.878936264252121e-03 8.667201261370851e-03 3.802855174003213e-03
-1.650966662664086e-03 7.941938687822964e-05 1.298745935888890e-03
-6.098930422456537e-04 -1.241389074773099e-03 5.455943827737189e-04
3.000618006134353e-04 -2.289285475202369e-03 -3.878369032722108e-05
1.078897865913180e-03 -3.064269814409579e-03 -4.543882834139303e-04
1.726615153653583e-03 -3.566342092394730e-03 -7.012193964864093e-04
2.243213663834642e-03 -3.795502309157821e-03 -7.792770295446578e-04
2.501294548387132e-03 9.554102231362717e-04 2.556636920414441e-03
2.449831845433172e-03 1.177901655457319e-03 2.702910189473208e-03
2.395930983392373e-03 1.405467898834134e-03 2.852321808366942e-03
2.339591962264735e-03 1.638108953266711e-03 3.004871777095638e-03
2.280814782050258e-03 1.875824818755055e-03 3.160560095659301e-03
2.219599442748943e-03 2.118615495299161e-03 3.319386764057926e-03
2.219599442748909e-03 2.118615495299295e-03 3.319386764058014e-03
2.106605778668611e-03 2.555710443355516e-03 3.604885088046711e-03
1.986145252384832e-03 3.008347000270093e-03 3.899994608405035e-03
1.858217863897572e-03 3.476525166043027e-03 4.204715325132984e-03
1.722823613206831e-03 3.960244940674314e-03 4.519047238230561e-03
1.579962500312609e-03 4.459506324163959e-03 4.842990347697763e-03
2.243213663834642e-03 -3.795502309157821e-03 -7.792770295446578e-04
2.704576020618179e-03 -3.698169994018129e-03 -6.395113645974264e-04
2.961065287465197e-03 -3.174412583218874e-03 -2.360371371279005e-04
3.012681464375695e-03 -2.224230076760055e-03 4.311456528639195e-04
2.859424551349673e-03 -8.476224746416716e-04 1.362037005378034e-03
2.501294548387131e-03 9.554102231362749e-04 2.556636920414443e-03
7.034194118135585e-03 7.185287367133635e-04 3.079086282688295e-03
6.458821990504600e-03 1.927386863746416e-03 2.516140637076523e-03
4.935128076901164e-03 4.148560042470606e-03 1.926984744527418e-03
2.463112377325276e-03 7.382048272885934e-03 1.311618605040980e-03
-9.572251082230667e-04 1.162785155499241e-02 6.700422186172073e-04
-5.325884379743861e-03 1.688596988879001e-02 2.255585256101447e-06
1.579962500312609e-03 4.459506324163959e-03 4.842990347697763e-03
3.600164174129936e-03 2.719242056016812e-03 4.515895576694449e-03
5.155688172820899e-03 1.475012163198179e-03 4.175957784691845e-03
6.246534496385494e-03 7.268166457080590e-04 3.823176971689951e-03
6.872703144823723e-03 4.746555035464541e-04 3.457553137688768e-03
7.034194118135586e-03 7.185287367133626e-04 3.079086282688295e-03
-9.939407456532495e-03 -9.088232054463519e-03 -5.596029130368356e-03
-1.148353994345174e-02 -8.004675419271157e-03 -5.354738185062112e-03
-1.158839928365714e-02 -6.227745721926808e-03 -4.882362450229105e-03
-1.025398547714869e-02 -3.757442962430475e-03 -4.178901925869335e-03
-7.480298523926397e-03 -5.937671407821562e-04 -3.244356611982799e-03
-3.267338423990259e-03 3.263281743018144e-03 -2.078726508569501e-03
1.823486508505567e-02 1.914924808831346e-02 2.853246957738853e-03
1.962857077457321e-02 2.009183277333456e-02 3.149606794726744e-03
2.105396613507913e-02 2.104968402833370e-02 3.451054617249028e-03
2.251105116657343e-02 2.202280185331085e-02 3.757590425305705e-03
2.399982586905610e-02 2.301118624826605e-02 4.069214218896778e-03
2.552029024252716e-02 2.401483721319925e-02 4.385925998022244e-03
-3.267338423990389e-03 3.263281743018035e-03 -2.078726508569535e-03
-2.021564657704415e-05 5.933036742749678e-03 -1.261448950175225e-03
3.753566093034237e-03 8.856510877145042e-03 -3.596128243472316e-04
8.054006794843447e-03 1.203370414620412e-02 6.267818689144459e-04
1.288110645885059e-02 1.546461654992693e-02 1.697735129609808e-03
1.823486508505567e-02 1.914924808831346e-02 2.853246957738853e-03
6.342592509157632e-02 1.045588635062918e-02 1.953616097787905e-03
4.014595297688812e-02 2.400666616391907e-03 -9.382083682954144e-04
2.116943366473313e-02 -3.581355091236000e-03 -3.139085124152701e-03
6.496367155111359e-03 -7.490178772254534e-03 -4.649014169783952e-03
-3.873246551977200e-03 -9.325804426663703e-03 -5.467995505189170e-03
-9.939407456532540e-03 -9.088232054463503e-03 -5.596029130368353e-03
1.125446991311711e-02 2.375311644061251e-02 2.981018382061257e-03
2.183580586130933e-02 4.164696252656599e-02 6.498827808888817e-03
3.454163626492968e-02 6.272107671907270e-02 1.066524780554243e-02
4.937196112397815e-02 8.697545901813265e-02 1.548027837202210e-02
6.632678043845470e-02 1.144101094237458e-01 2.094391950832781e-02
8.540609420835940e-02 1.450250279359122e-01 2.705617121445957e-02
2.552029024252716e-02 2.401483721319925e-02 4.385925998022244e-03
1.819789115437472e-02 1.434698381865582e-02 2.331308471727000e-03
1.171786968013117e-02 5.940130024437990e-03 5.338697875653053e-04
6.080225819796506e-03 -1.205724169454211e-03 -1.006390054462835e-03
1.284959573370726e-03 -7.090578763020812e-03 -2.289471054357426e-03
-2.667929059146157e-03 -1.171443375626178e-02 -3.315373212118463e-03
-2.667929059146182e-03 -1.171443375626181e-02 -3.315373212118469e-03
-5.543556732664647e-03 -1.483714294002682e-02 -4.027977300100323e-03
-7.715736751830919e-03 -1.690682412739016e-02 -4.525818020370666e-03
-9.184469116645000e-03 -1.792347731835182e-02 -4.808895372929499e-03
-9.949753827106896e-03 -1.788710251291180e-02 -4.877209357776823e-03
-1.001159088321660e-02 -1.679769971107011e-02 -4.730759974912637e-03
-1.001159088321660e-02 -1.679769971107010e-02 -4.730759974912636e-03
-8.818901815472216e-03 -1.326899535555884e-02 -4.122785478901099e-03
-6.095951201966634e-03 -7.449561562634914e-03 -3.047620395197934e-03
-1.842739042699854e-03 6.606016677016737e-04 -1.505264723803142e-03
3.940734662328121e-03 1.106149433545092e-02 5.042815352832757e-04
1.125446991311730e-02 2.375311644061284e-02 2.981018382061322e-03
        </DataArray>
        <DataArray type="Int32" Name="uid_0_pair_beam_id" format="ascii">
275
275
275
275
275
275
275
275
275
275
275
275
275
275
275
275
275
275
276
276
276
276
276
276
276
276
276
276
276
276
276
276
276
276
276
276
277
277
277
277
277
277
277
277
277
277
277
277
277
277
277
277
277
277
277
277
277
277
277
277
278
278
278
278
278
278
278
278
278
278
278
278
279
279
279
279
279
279
279
279
279
279
279
279
279
279
279
279
279
279
279
279
279
279
279
279
280
280
280
280
280
280
280
280
280
280
280
280
280
280
280
280
280
280
280
280
280
280
280
280
        </DataArray>
        <DataArray type="Int32" Name="uid_1_pair_solid_id" format="ascii">
34
34
34
34
34
34
35
35
35
35
35
35
38
38
38
38
38
38
38
38
38
38
38
38
39
39
39
39
39
39
42
42
42
42
42
42
44
44
44
44
44
44
48
48
48
48
48
48
47
47
47
47
47
47
46
46
46
46
46
46
49
49
49
49
49
49
47
47
47
47
47
47
58
58
58
58
58
58
65
65
65
65
65
65
83
83
83
83
83
83
98
98
98
98
98
98
51
51
51
51
51
51
65
65
65
65
65
65
69
69
69
69
69
69
93
93
93
93
93
93
        </DataArray>
  </PointData>
  <CellData>
        <DataArray type="Int32" Name="uid_0_pair_beam_id" format="ascii">
275
275
275
276
276
276
277
277
277
277
278
278
279
279
279
279
280
280
280
280
        </DataArray>
        <DataArray type="Int32" Name="uid_1_pair_solid_id" format="ascii">
34
35
38
38
39
42
44
48
47
46
49
47
58
65
83
98
51
65
69
93
        </DataArray>
      </CellData>

    </Piece>
  </UnstructuredGrid>
</VTKFile>
