<?xml version="1.0" ?> 
<!-- 
# vtk DataFile Version 3.0
-->
<VTKFile type="UnstructuredGrid" version="0.1" compressor="vtkZLibDataCompressor" byte_order="LittleEndian">
  <UnstructuredGrid>
    <FieldData>
      <DataArray type="Float64" Name="TIME" NumberOfTuples="1" format="ascii">
3.000000000000000e+00 
      </DataArray>
    </FieldData>

    <Piece NumberOfPoints="204" NumberOfCells="0" >
      <Points>
        <DataArray type="Float64" NumberOfComponents="3" format="ascii">
5.000000000000000e-01 8.660254037839999e-01 5.000000000000000e-01
0.000000000000000e+00 1.000000000000000e+00 5.000000000000000e-01
0.000000000000000e+00 1.000000000000000e+00 1.000000000000000e+00
5.000000000000000e-01 8.660254037839999e-01 1.000000000000000e+00
1.000000000000000e+00 0.000000000000000e+00 1.000000000000000e+00
8.660254037839999e-01 5.000000000000000e-01 1.000000000000000e+00
8.660254037839999e-01 5.000000000000000e-01 1.500000000000000e+00
1.000000000000000e+00 0.000000000000000e+00 1.500000000000000e+00
8.660254037839999e-01 5.000000000000000e-01 5.000000000000000e-01
5.000000000000000e-01 8.660254037839999e-01 5.000000000000000e-01
5.000000000000000e-01 8.660254037839999e-01 1.000000000000000e+00
8.660254037839999e-01 5.000000000000000e-01 1.000000000000000e+00
1.000000000000000e+00 0.000000000000000e+00 5.000000000000000e-01
8.660254037839999e-01 5.000000000000000e-01 5.000000000000000e-01
8.660254037839999e-01 5.000000000000000e-01 1.000000000000000e+00
1.000000000000000e+00 0.000000000000000e+00 1.000000000000000e+00
5.000000000000000e-01 8.660254037839999e-01 0.000000000000000e+00
0.000000000000000e+00 1.000000000000000e+00 0.000000000000000e+00
0.000000000000000e+00 1.000000000000000e+00 5.000000000000000e-01
5.000000000000000e-01 8.660254037839999e-01 5.000000000000000e-01
8.660254037839999e-01 5.000000000000000e-01 0.000000000000000e+00
5.000000000000000e-01 8.660254037839999e-01 0.000000000000000e+00
5.000000000000000e-01 8.660254037839999e-01 5.000000000000000e-01
8.660254037839999e-01 5.000000000000000e-01 5.000000000000000e-01
1.000000000000000e+00 0.000000000000000e+00 0.000000000000000e+00
8.660254037839999e-01 5.000000000000000e-01 0.000000000000000e+00
8.660254037839999e-01 5.000000000000000e-01 5.000000000000000e-01
1.000000000000000e+00 0.000000000000000e+00 5.000000000000000e-01
8.660254037839999e-01 5.000000000000000e-01 1.000000000000000e+00
5.000000000000000e-01 8.660254037839999e-01 1.000000000000000e+00
5.000000000000000e-01 8.660254037839999e-01 1.500000000000000e+00
8.660254037839999e-01 5.000000000000000e-01 1.500000000000000e+00
5.000000000000000e-01 8.660254037839999e-01 1.000000000000000e+00
0.000000000000000e+00 1.000000000000000e+00 1.000000000000000e+00
0.000000000000000e+00 1.000000000000000e+00 1.500000000000000e+00
5.000000000000000e-01 8.660254037839999e-01 1.500000000000000e+00
5.000000000000000e-01 3.000000000000000e-01 3.000000000000000e+00
5.000000000000000e-01 3.000000000000000e-01 3.500000000000000e+00
1.000000000000000e+00 3.000000000000000e-01 3.500000000000000e+00
1.000000000000000e+00 3.000000000000000e-01 3.000000000000000e+00
0.000000000000000e+00 3.000000000000000e-01 2.500000000000000e+00
0.000000000000000e+00 3.000000000000000e-01 3.000000000000000e+00
5.000000000000000e-01 3.000000000000000e-01 3.000000000000000e+00
5.000000000000000e-01 3.000000000000000e-01 2.500000000000000e+00
0.000000000000000e+00 3.000000000000000e-01 3.000000000000000e+00
0.000000000000000e+00 3.000000000000000e-01 3.500000000000000e+00
5.000000000000000e-01 3.000000000000000e-01 3.500000000000000e+00
5.000000000000000e-01 3.000000000000000e-01 3.000000000000000e+00
1.000000000000000e+00 3.000000000000000e-01 2.500000000000000e+00
1.000000000000000e+00 3.000000000000000e-01 3.000000000000000e+00
1.500000000000000e+00 3.000000000000000e-01 3.000000000000000e+00
1.500000000000000e+00 3.000000000000000e-01 2.500000000000000e+00
1.000000000000000e+00 3.000000000000000e-01 3.000000000000000e+00
1.000000000000000e+00 3.000000000000000e-01 3.500000000000000e+00
1.500000000000000e+00 3.000000000000000e-01 3.500000000000000e+00
1.500000000000000e+00 3.000000000000000e-01 3.000000000000000e+00
5.000000000000000e-01 3.000000000000000e-01 2.500000000000000e+00
5.000000000000000e-01 3.000000000000000e-01 3.000000000000000e+00
1.000000000000000e+00 3.000000000000000e-01 3.000000000000000e+00
1.000000000000000e+00 3.000000000000000e-01 2.500000000000000e+00
1.500000000000000e+00 3.000000000000000e-01 3.000000000000000e+00
1.500000000000000e+00 3.000000000000000e-01 3.500000000000000e+00
2.000000000000000e+00 3.000000000000000e-01 3.500000000000000e+00
2.000000000000000e+00 3.000000000000000e-01 3.000000000000000e+00
1.500000000000000e+00 3.000000000000000e-01 2.500000000000000e+00
1.500000000000000e+00 3.000000000000000e-01 3.000000000000000e+00
2.000000000000000e+00 3.000000000000000e-01 3.000000000000000e+00
2.000000000000000e+00 3.000000000000000e-01 2.500000000000000e+00
5.000000000000000e-01 8.660254037839999e-01 6.000000000000000e+00
0.000000000000000e+00 1.000000000000000e+00 6.000000000000000e+00
0.000000000000000e+00 1.000000000000000e+00 6.500000000000000e+00
5.000000000000000e-01 8.660254037839999e-01 6.500000000000000e+00
2.588190451030000e-01 9.659258262890000e-01 6.000000000000000e+00
0.000000000000000e+00 1.000000000000000e+00 6.250000000000000e+00
2.588190451030000e-01 9.659258262890000e-01 6.500000000000000e+00
5.000000000000000e-01 8.660254037839999e-01 6.250000000000000e+00
8.660254037839999e-01 5.000000000000000e-01 6.000000000000000e+00
5.000000000000000e-01 8.660254037839999e-01 6.000000000000000e+00
5.000000000000000e-01 8.660254037839999e-01 6.500000000000000e+00
8.660254037839999e-01 5.000000000000000e-01 6.500000000000000e+00
7.071067811870000e-01 7.071067811870000e-01 6.000000000000000e+00
5.000000000000000e-01 8.660254037839999e-01 6.250000000000000e+00
7.071067811870000e-01 7.071067811870000e-01 6.500000000000000e+00
8.660254037839999e-01 5.000000000000000e-01 6.250000000000000e+00
1.000000000000000e+00 0.000000000000000e+00 6.000000000000000e+00
8.660254037839999e-01 5.000000000000000e-01 6.000000000000000e+00
8.660254037839999e-01 5.000000000000000e-01 6.500000000000000e+00
1.000000000000000e+00 0.000000000000000e+00 6.500000000000000e+00
9.659258262890000e-01 2.588190451030000e-01 6.000000000000000e+00
8.660254037839999e-01 5.000000000000000e-01 6.250000000000000e+00
9.659258262890000e-01 2.588190451030000e-01 6.500000000000000e+00
1.000000000000000e+00 0.000000000000000e+00 6.250000000000000e+00
5.000000000000000e-01 8.660254037839999e-01 5.500000000000000e+00
0.000000000000000e+00 1.000000000000000e+00 5.500000000000000e+00
0.000000000000000e+00 1.000000000000000e+00 6.000000000000000e+00
5.000000000000000e-01 8.660254037839999e-01 6.000000000000000e+00
2.588190451030000e-01 9.659258262890000e-01 5.500000000000000e+00
0.000000000000000e+00 1.000000000000000e+00 5.750000000000000e+00
2.588190451030000e-01 9.659258262890000e-01 6.000000000000000e+00
5.000000000000000e-01 8.660254037839999e-01 5.750000000000000e+00
8.660254037839999e-01 5.000000000000000e-01 5.500000000000000e+00
5.000000000000000e-01 8.660254037839999e-01 5.500000000000000e+00
5.000000000000000e-01 8.660254037839999e-01 6.000000000000000e+00
8.660254037839999e-01 5.000000000000000e-01 6.000000000000000e+00
7.071067811870000e-01 7.071067811870000e-01 5.500000000000000e+00
5.000000000000000e-01 8.660254037839999e-01 5.750000000000000e+00
7.071067811870000e-01 7.071067811870000e-01 6.000000000000000e+00
8.660254037839999e-01 5.000000000000000e-01 5.750000000000000e+00
1.000000000000000e+00 0.000000000000000e+00 5.500000000000000e+00
8.660254037839999e-01 5.000000000000000e-01 5.500000000000000e+00
8.660254037839999e-01 5.000000000000000e-01 6.000000000000000e+00
1.000000000000000e+00 0.000000000000000e+00 6.000000000000000e+00
9.659258262890000e-01 2.588190451030000e-01 5.500000000000000e+00
8.660254037839999e-01 5.000000000000000e-01 5.750000000000000e+00
9.659258262890000e-01 2.588190451030000e-01 6.000000000000000e+00
1.000000000000000e+00 0.000000000000000e+00 5.750000000000000e+00
1.000000000000000e+00 0.000000000000000e+00 5.000000000000000e+00
8.660254037839999e-01 5.000000000000000e-01 5.000000000000000e+00
8.660254037839999e-01 5.000000000000000e-01 5.500000000000000e+00
1.000000000000000e+00 0.000000000000000e+00 5.500000000000000e+00
9.659258262890000e-01 2.588190451030000e-01 5.000000000000000e+00
8.660254037839999e-01 5.000000000000000e-01 5.250000000000000e+00
9.659258262890000e-01 2.588190451030000e-01 5.500000000000000e+00
1.000000000000000e+00 0.000000000000000e+00 5.250000000000000e+00
5.000000000000000e-01 8.660254037839999e-01 5.000000000000000e+00
0.000000000000000e+00 1.000000000000000e+00 5.000000000000000e+00
0.000000000000000e+00 1.000000000000000e+00 5.500000000000000e+00
5.000000000000000e-01 8.660254037839999e-01 5.500000000000000e+00
2.588190451030000e-01 9.659258262890000e-01 5.000000000000000e+00
0.000000000000000e+00 1.000000000000000e+00 5.250000000000000e+00
2.588190451030000e-01 9.659258262890000e-01 5.500000000000000e+00
5.000000000000000e-01 8.660254037839999e-01 5.250000000000000e+00
8.660254037839999e-01 5.000000000000000e-01 5.000000000000000e+00
5.000000000000000e-01 8.660254037839999e-01 5.000000000000000e+00
5.000000000000000e-01 8.660254037839999e-01 5.500000000000000e+00
8.660254037839999e-01 5.000000000000000e-01 5.500000000000000e+00
7.071067811870000e-01 7.071067811870000e-01 5.000000000000000e+00
5.000000000000000e-01 8.660254037839999e-01 5.250000000000000e+00
7.071067811870000e-01 7.071067811870000e-01 5.500000000000000e+00
8.660254037839999e-01 5.000000000000000e-01 5.250000000000000e+00
1.500000000000000e+00 3.000000000000000e-01 7.500000000000000e+00
1.500000000000000e+00 3.000000000000000e-01 8.000000000000000e+00
2.000000000000000e+00 3.000000000000000e-01 8.000000000000000e+00
2.000000000000000e+00 3.000000000000000e-01 7.500000000000000e+00
1.500000000000000e+00 3.000000000000000e-01 7.750000000000000e+00
1.750000000000000e+00 3.000000000000000e-01 8.000000000000000e+00
2.000000000000000e+00 3.000000000000000e-01 7.750000000000000e+00
1.750000000000000e+00 3.000000000000000e-01 7.500000000000000e+00
1.500000000000000e+00 3.000000000000000e-01 8.000000000000000e+00
1.500000000000000e+00 3.000000000000000e-01 8.500000000000000e+00
2.000000000000000e+00 3.000000000000000e-01 8.500000000000000e+00
2.000000000000000e+00 3.000000000000000e-01 8.000000000000000e+00
1.500000000000000e+00 3.000000000000000e-01 8.250000000000000e+00
1.750000000000000e+00 3.000000000000000e-01 8.500000000000000e+00
2.000000000000000e+00 3.000000000000000e-01 8.250000000000000e+00
1.750000000000000e+00 3.000000000000000e-01 8.000000000000000e+00
1.000000000000000e+00 3.000000000000000e-01 7.500000000000000e+00
1.000000000000000e+00 3.000000000000000e-01 8.000000000000000e+00
1.500000000000000e+00 3.000000000000000e-01 8.000000000000000e+00
1.500000000000000e+00 3.000000000000000e-01 7.500000000000000e+00
1.000000000000000e+00 3.000000000000000e-01 7.750000000000000e+00
1.250000000000000e+00 3.000000000000000e-01 8.000000000000000e+00
1.500000000000000e+00 3.000000000000000e-01 7.750000000000000e+00
1.250000000000000e+00 3.000000000000000e-01 7.500000000000000e+00
1.000000000000000e+00 3.000000000000000e-01 8.000000000000000e+00
1.000000000000000e+00 3.000000000000000e-01 8.500000000000000e+00
1.500000000000000e+00 3.000000000000000e-01 8.500000000000000e+00
1.500000000000000e+00 3.000000000000000e-01 8.000000000000000e+00
1.000000000000000e+00 3.000000000000000e-01 8.250000000000000e+00
1.250000000000000e+00 3.000000000000000e-01 8.500000000000000e+00
1.500000000000000e+00 3.000000000000000e-01 8.250000000000000e+00
1.250000000000000e+00 3.000000000000000e-01 8.000000000000000e+00
5.000000000000000e-01 3.000000000000000e-01 7.500000000000000e+00
5.000000000000000e-01 3.000000000000000e-01 8.000000000000000e+00
1.000000000000000e+00 3.000000000000000e-01 8.000000000000000e+00
1.000000000000000e+00 3.000000000000000e-01 7.500000000000000e+00
5.000000000000000e-01 3.000000000000000e-01 7.750000000000000e+00
7.500000000000000e-01 3.000000000000000e-01 8.000000000000000e+00
1.000000000000000e+00 3.000000000000000e-01 7.750000000000000e+00
7.500000000000000e-01 3.000000000000000e-01 7.500000000000000e+00
5.000000000000000e-01 3.000000000000000e-01 8.000000000000000e+00
5.000000000000000e-01 3.000000000000000e-01 8.500000000000000e+00
1.000000000000000e+00 3.000000000000000e-01 8.500000000000000e+00
1.000000000000000e+00 3.000000000000000e-01 8.000000000000000e+00
5.000000000000000e-01 3.000000000000000e-01 8.250000000000000e+00
7.500000000000000e-01 3.000000000000000e-01 8.500000000000000e+00
1.000000000000000e+00 3.000000000000000e-01 8.250000000000000e+00
7.500000000000000e-01 3.000000000000000e-01 8.000000000000000e+00
0.000000000000000e+00 3.000000000000000e-01 7.500000000000000e+00
0.000000000000000e+00 3.000000000000000e-01 8.000000000000000e+00
5.000000000000000e-01 3.000000000000000e-01 8.000000000000000e+00
5.000000000000000e-01 3.000000000000000e-01 7.500000000000000e+00
0.000000000000000e+00 3.000000000000000e-01 7.750000000000000e+00
2.500000000000000e-01 3.000000000000000e-01 8.000000000000000e+00
5.000000000000000e-01 3.000000000000000e-01 7.750000000000000e+00
2.500000000000000e-01 3.000000000000000e-01 7.500000000000000e+00
0.000000000000000e+00 3.000000000000000e-01 8.000000000000000e+00
0.000000000000000e+00 3.000000000000000e-01 8.500000000000000e+00
5.000000000000000e-01 3.000000000000000e-01 8.500000000000000e+00
5.000000000000000e-01 3.000000000000000e-01 8.000000000000000e+00
0.000000000000000e+00 3.000000000000000e-01 8.250000000000000e+00
2.500000000000000e-01 3.000000000000000e-01 8.500000000000000e+00
5.000000000000000e-01 3.000000000000000e-01 8.250000000000000e+00
2.500000000000000e-01 3.000000000000000e-01 8.000000000000000e+00
        </DataArray>
      </Points>

      <Cells>
        <DataArray type="Int32" Name="connectivity" format="ascii">

        </DataArray>
        <DataArray type="Int32" Name="offsets" format="ascii">

        </DataArray>
        <DataArray type="UInt8" Name="types" format="ascii">

        </DataArray>
      </Cells>

  <PointData>
        <DataArray type="Int32" Name="coupling_id" format="ascii">
1
1
1
1
1
1
1
1
1
1
1
1
1
1
1
1
1
1
1
1
1
1
1
1
1
1
1
1
1
1
1
1
1
1
1
1
2
2
2
2
2
2
2
2
2
2
2
2
2
2
2
2
2
2
2
2
2
2
2
2
2
2
2
2
2
2
2
2
3
3
3
3
3
3
3
3
3
3
3
3
3
3
3
3
3
3
3
3
3
3
3
3
3
3
3
3
3
3
3
3
3
3
3
3
3
3
3
3
3
3
3
3
3
3
3
3
3
3
3
3
3
3
3
3
3
3
3
3
3
3
3
3
3
3
3
3
3
3
3
3
4
4
4
4
4
4
4
4
4
4
4
4
4
4
4
4
4
4
4
4
4
4
4
4
4
4
4
4
4
4
4
4
4
4
4
4
4
4
4
4
4
4
4
4
4
4
4
4
4
4
4
4
4
4
4
4
4
4
4
4
4
4
4
4
        </DataArray>
        <DataArray type="Float64" Name="displacement" NumberOfComponents="3" format="ascii">
-9.783146329417625e-03 4.936484972242250e-02 -7.883951317226412e-03
0.000000000000000e+00 0.000000000000000e+00 0.000000000000000e+00
0.000000000000000e+00 0.000000000000000e+00 0.000000000000000e+00
-1.787595007732096e-02 3.718189263244498e-02 -9.880670016582660e-03
1.468607405545037e-01 1.749738534725056e-01 9.235517072396782e-04
4.378309358412691e-02 1.382995859510272e-01 -1.241252791513769e-03
3.191047598436147e-02 1.077175692255200e-01 -8.391491755397329e-04
1.067813608159338e-01 1.411931305719285e-01 -4.568118627797046e-03
5.770987728469046e-02 1.542953226035334e-01 -5.460710161910909e-03
-9.783146329417625e-03 4.936484972242250e-02 -7.883951317226412e-03
-1.787595007732096e-02 3.718189263244498e-02 -9.880670016582660e-03
4.378309358412691e-02 1.382995859510272e-01 -1.241252791513769e-03
2.040372764375333e-01 2.233789133117213e-01 1.375124538256567e-02
5.770987728469046e-02 1.542953226035334e-01 -5.460710161910909e-03
4.378309358412691e-02 1.382995859510272e-01 -1.241252791513769e-03
1.468607405545037e-01 1.749738534725056e-01 9.235517072396782e-04
-1.227613910547753e-02 3.806658461817758e-02 -1.148625098063105e-02
0.000000000000000e+00 0.000000000000000e+00 0.000000000000000e+00
0.000000000000000e+00 0.000000000000000e+00 0.000000000000000e+00
-9.783146329417625e-03 4.936484972242250e-02 -7.883951317226412e-03
8.209969311477439e-02 1.703442296782609e-01 -6.986038520481658e-04
-1.227613910547753e-02 3.806658461817758e-02 -1.148625098063105e-02
-9.783146329417625e-03 4.936484972242250e-02 -7.883951317226412e-03
5.770987728469046e-02 1.542953226035334e-01 -5.460710161910909e-03
3.228033849769563e-01 2.906951044012108e-01 2.660729989646160e-02
8.209969311477439e-02 1.703442296782609e-01 -6.986038520481658e-04
5.770987728469046e-02 1.542953226035334e-01 -5.460710161910909e-03
2.040372764375333e-01 2.233789133117213e-01 1.375124538256567e-02
4.378309358412691e-02 1.382995859510272e-01 -1.241252791513769e-03
-1.787595007732096e-02 3.718189263244498e-02 -9.880670016582660e-03
-8.823394735383849e-04 7.149604546698507e-02 -1.073193161999186e-02
3.191047598436147e-02 1.077175692255200e-01 -8.391491755397329e-04
-1.787595007732096e-02 3.718189263244498e-02 -9.880670016582660e-03
0.000000000000000e+00 0.000000000000000e+00 0.000000000000000e+00
0.000000000000000e+00 0.000000000000000e+00 0.000000000000000e+00
-8.823394735383849e-04 7.149604546698507e-02 -1.073193161999186e-02
-2.915463289255238e-02 6.377311270805902e-02 4.014489638240804e-03
-5.517901373894502e-02 7.885528858648294e-02 1.291894373681890e-02
-1.058430174078597e-01 2.531199628751722e-01 1.207495723581786e-02
-6.064099399172063e-02 1.956896709781158e-01 1.740615924373667e-02
0.000000000000000e+00 0.000000000000000e+00 0.000000000000000e+00
0.000000000000000e+00 0.000000000000000e+00 0.000000000000000e+00
-2.915463289255238e-02 6.377311270805902e-02 4.014489638240804e-03
-2.600966505232283e-03 9.169453958490170e-03 3.406764764806169e-04
0.000000000000000e+00 0.000000000000000e+00 0.000000000000000e+00
0.000000000000000e+00 0.000000000000000e+00 0.000000000000000e+00
-5.517901373894502e-02 7.885528858648294e-02 1.291894373681890e-02
-2.915463289255238e-02 6.377311270805902e-02 4.014489638240804e-03
-1.992441473662632e-02 1.325082584985141e-01 2.287267036668439e-02
-6.064099399172063e-02 1.956896709781158e-01 1.740615924373667e-02
-1.025288386115404e-01 3.840702160078904e-01 2.141564838294840e-02
-5.095280504953492e-02 2.868586836080948e-01 3.083140460623968e-02
-6.064099399172063e-02 1.956896709781158e-01 1.740615924373667e-02
-1.058430174078597e-01 2.531199628751722e-01 1.207495723581786e-02
-1.529125496420585e-01 4.803016146485246e-01 1.097449319696731e-02
-1.025288386115404e-01 3.840702160078904e-01 2.141564838294840e-02
-2.600966505232283e-03 9.169453958490170e-03 3.406764764806169e-04
-2.915463289255238e-02 6.377311270805902e-02 4.014489638240804e-03
-6.064099399172063e-02 1.956896709781158e-01 1.740615924373667e-02
-1.992441473662632e-02 1.325082584985141e-01 2.287267036668439e-02
-1.025288386115404e-01 3.840702160078904e-01 2.141564838294840e-02
-1.529125496420585e-01 4.803016146485246e-01 1.097449319696731e-02
-2.153200226872516e-01 7.320785820027174e-01 -1.043940600384774e-02
-1.509349730753029e-01 5.894899056340250e-01 1.272155452944190e-02
-5.095280504953492e-02 2.868586836080948e-01 3.083140460623968e-02
-1.025288386115404e-01 3.840702160078904e-01 2.141564838294840e-02
-1.509349730753029e-01 5.894899056340250e-01 1.272155452944190e-02
-8.641489209560205e-02 4.665151357778557e-01 3.326682011359861e-02
-1.055631799593731e-02 5.147126147359693e-02 -3.932777395651676e-03
0.000000000000000e+00 0.000000000000000e+00 0.000000000000000e+00
0.000000000000000e+00 0.000000000000000e+00 0.000000000000000e+00
-9.099331752911277e-03 2.797602679632161e-02 6.779091965283257e-04
-1.130383876274127e-02 1.434571156146203e-02 -2.799765665061571e-03
0.000000000000000e+00 0.000000000000000e+00 0.000000000000000e+00
-5.368186519456586e-03 8.008710408622166e-03 2.413532498760418e-03
-9.365076244164772e-03 4.214972268944872e-02 -1.525330577795359e-03
5.298517305067607e-02 1.499551477648052e-01 -3.504413904682480e-04
-1.055631799593731e-02 5.147126147359693e-02 -3.932777395651676e-03
-9.099331752911277e-03 2.797602679632161e-02 6.779091965283257e-04
3.332059328308079e-02 1.055261229176792e-01 -1.724473358565071e-03
1.164739585563179e-02 1.016530687345716e-01 -2.290165633962005e-03
-9.365076244164772e-03 4.214972268944872e-02 -1.525330577795359e-03
2.111598039005513e-03 6.540377762214800e-02 5.115971242171113e-04
4.428142869878093e-02 1.267409790301255e-01 -1.228024160207397e-03
1.847579813669966e-01 2.092539648070503e-01 -1.591355941613593e-02
5.298517305067607e-02 1.499551477648052e-01 -3.504413904682480e-04
3.332059328308079e-02 1.055261229176792e-01 -1.724473358565071e-03
1.433190814256342e-01 1.536274264602011e-01 -2.364363894264621e-02
1.128077741718594e-01 1.881758381283335e-01 -2.684706061691244e-03
4.428142869878093e-02 1.267409790301255e-01 -1.228024160207397e-03
8.280230489243046e-02 1.364113689045684e-01 -8.819220990783805e-03
1.625495240451609e-01 1.792753682151788e-01 -2.121013843186503e-02
-8.879906139646287e-03 6.107661977385159e-02 -6.434441037511007e-03
0.000000000000000e+00 0.000000000000000e+00 0.000000000000000e+00
0.000000000000000e+00 0.000000000000000e+00 0.000000000000000e+00
-1.055631799593731e-02 5.147126147359693e-02 -3.932777395651676e-03
-1.057730991298164e-02 1.500595655322090e-02 -4.755040401893673e-03
0.000000000000000e+00 0.000000000000000e+00 0.000000000000000e+00
-1.130383876274127e-02 1.434571156146203e-02 -2.799765665061571e-03
-8.345869904653691e-03 5.880584205092720e-02 -6.178390017469226e-03
7.289068482117234e-02 1.915743874987959e-01 -5.971358415065353e-03
-8.879906139646287e-03 6.107661977385159e-02 -6.434441037511007e-03
-1.055631799593731e-02 5.147126147359693e-02 -3.932777395651676e-03
5.298517305067607e-02 1.499551477648052e-01 -3.504413904682480e-04
1.827160182819709e-02 1.268485300705759e-01 -7.036715533564220e-03
-8.345869904653691e-03 5.880584205092720e-02 -6.178390017469226e-03
1.164739585563179e-02 1.016530687345716e-01 -2.290165633962005e-03
6.355212484511341e-02 1.737471294519262e-01 -2.267251671511872e-03
2.490922719103319e-01 2.808188646900158e-01 7.396791495859034e-03
7.289068482117234e-02 1.915743874987959e-01 -5.971358415065353e-03
5.298517305067607e-02 1.499551477648052e-01 -3.504413904682480e-04
1.847579813669966e-01 2.092539648070503e-01 -1.591355941613593e-02
1.553332301636003e-01 2.487489845226427e-01 7.765353001042641e-03
6.355212484511341e-02 1.737471294519262e-01 -2.267251671511872e-03
1.128077741718594e-01 1.881758381283335e-01 -2.684706061691244e-03
2.116013261950378e-01 2.418551353970519e-01 -5.518279408758708e-03
3.713125019683858e-01 3.525668146493435e-01 3.661406225943686e-02
1.022741406821411e-01 2.380798153284526e-01 9.135355547625679e-03
7.289068482117234e-02 1.915743874987959e-01 -5.971358415065353e-03
2.490922719103319e-01 2.808188646900158e-01 7.396791495859034e-03
2.418619044969987e-01 3.111183131395472e-01 2.516429489989225e-02
9.070743721009367e-02 2.148284470433393e-01 -3.199832956388704e-04
1.553332301636003e-01 2.487489845226427e-01 7.765353001042641e-03
3.003724875008031e-01 3.166890342543321e-01 1.757514512013358e-02
-9.340131791498785e-03 6.120130835556481e-02 -9.298777620251997e-03
0.000000000000000e+00 0.000000000000000e+00 0.000000000000000e+00
0.000000000000000e+00 0.000000000000000e+00 0.000000000000000e+00
-8.879906139646287e-03 6.107661977385159e-02 -6.434441037511007e-03
-1.055479021574890e-02 1.074743810748724e-02 -6.939491787549379e-03
0.000000000000000e+00 0.000000000000000e+00 0.000000000000000e+00
-1.057730991298164e-02 1.500595655322090e-02 -4.755040401893673e-03
-8.635039592631677e-03 6.361148192959565e-02 -6.221325896171415e-03
1.022741406821411e-01 2.380798153284526e-01 9.135355547625679e-03
-9.340131791498785e-03 6.120130835556481e-02 -9.298777620251997e-03
-8.879906139646287e-03 6.107661977385159e-02 -6.434441037511007e-03
7.289068482117234e-02 1.915743874987959e-01 -5.971358415065353e-03
2.205002322183858e-02 1.442289039186717e-01 -3.457350324453046e-03
-8.635039592631677e-03 6.361148192959565e-02 -6.221325896171415e-03
1.827160182819709e-02 1.268485300705759e-01 -7.036715533564220e-03
9.070743721009367e-02 2.148284470433393e-01 -3.199832956388704e-04
-1.532365409899805e-01 4.960441957246738e-01 5.505019452400006e-02
-2.128256217884712e-01 5.673970758843669e-01 5.076842255749092e-02
-3.162580925501544e-01 8.648307898990224e-01 4.170096344144625e-02
-2.474327415514115e-01 7.788192011113177e-01 5.760634104953066e-02
-1.844333851905391e-01 5.325383406975925e-01 5.186224752173452e-02
-2.657421176135850e-01 7.148049322850241e-01 4.586121310424218e-02
-2.800052058399656e-01 8.208298447127778e-01 5.104997973475367e-02
-1.994510400390905e-01 6.351265242366084e-01 5.694827769155175e-02
-2.128256217884712e-01 5.673970758843669e-01 5.076842255749092e-02
-2.743507574392776e-01 6.313374367462754e-01 4.271009388459568e-02
-3.934235487595552e-01 9.831163899026085e-01 1.833368042328765e-02
-3.162580925501544e-01 8.648307898990224e-01 4.170096344144625e-02
-2.392221977165225e-01 6.021353191088663e-01 4.936063876459329e-02
-3.315327488562088e-01 8.090750159289102e-01 3.265321622644812e-02
-3.555719485285933e-01 9.167728233133614e-01 3.147540058820475e-02
-2.657421176135850e-01 7.148049322850241e-01 4.586121310424218e-02
-6.891968689174943e-02 2.426807152769196e-01 4.033807962167568e-02
-1.194910200565000e-01 2.974169225640771e-01 4.142002932815458e-02
-2.128256217884712e-01 5.673970758843669e-01 5.076842255749092e-02
-1.532365409899805e-01 4.960441957246738e-01 5.505019452400006e-02
-9.708771345900380e-02 2.705716955102108e-01 4.002368499978548e-02
-1.626637437554819e-01 4.288883814804303e-01 5.024690866447656e-02
-1.844333851905391e-01 5.325383406975925e-01 5.186224752173452e-02
-1.093216856461616e-01 3.643885486923666e-01 4.969088139107658e-02
-1.194910200565000e-01 2.974169225640771e-01 4.142002932815458e-02
-1.721352232109321e-01 3.259420225419004e-01 3.748004407808558e-02
-2.743507574392776e-01 6.313374367462754e-01 4.271009388459568e-02
-2.128256217884712e-01 5.673970758843669e-01 5.076842255749092e-02
-1.477417837786683e-01 3.139613126951669e-01 3.895207937890000e-02
-2.215734978156834e-01 4.723387783486497e-01 4.289740372207795e-02
-2.392221977165225e-01 6.021353191088663e-01 4.936063876459329e-02
-1.626637437554819e-01 4.288883814804303e-01 5.024690866447656e-02
-1.229207770731416e-02 5.157775548573451e-02 1.035388182882802e-02
-5.258276658081124e-02 8.902457448369988e-02 1.393232887514451e-02
-1.194910200565000e-01 2.974169225640771e-01 4.142002932815458e-02
-6.891968689174943e-02 2.426807152769196e-01 4.033807962167568e-02
-3.311007952729178e-02 7.378254933303768e-02 1.135641873386284e-02
-8.298866057124354e-02 1.803041091215478e-01 2.675474689481661e-02
-9.708771345900380e-02 2.705716955102108e-01 4.002368499978548e-02
-3.504831635275318e-02 1.351486313496578e-01 2.558533885878767e-02
-5.258276658081124e-02 8.902457448369988e-02 1.393232887514451e-02
-8.199982029094222e-02 9.226007093822991e-02 2.293438230850775e-02
-1.721352232109321e-01 3.259420225419004e-01 3.748004407808558e-02
-1.194910200565000e-01 2.974169225640771e-01 4.142002932815458e-02
-6.881393697526883e-02 9.601477805178132e-02 1.695424928262490e-02
-1.259835543467618e-01 1.978369736357029e-01 3.101194713838673e-02
-1.477417837786683e-01 3.139613126951669e-01 3.895207937890000e-02
-8.298866057124354e-02 1.803041091215478e-01 2.675474689481661e-02
0.000000000000000e+00 0.000000000000000e+00 0.000000000000000e+00
0.000000000000000e+00 0.000000000000000e+00 0.000000000000000e+00
-5.258276658081124e-02 8.902457448369988e-02 1.393232887514451e-02
-1.229207770731416e-02 5.157775548573451e-02 1.035388182882802e-02
0.000000000000000e+00 0.000000000000000e+00 0.000000000000000e+00
-2.582932005293748e-02 2.878672198150634e-02 3.606219920625264e-03
-3.311007952729178e-02 7.378254933303768e-02 1.135641873386284e-02
-2.944578665195735e-03 5.824661200150349e-03 6.376129141818510e-04
0.000000000000000e+00 0.000000000000000e+00 0.000000000000000e+00
0.000000000000000e+00 0.000000000000000e+00 0.000000000000000e+00
-8.199982029094222e-02 9.226007093822991e-02 2.293438230850775e-02
-5.258276658081124e-02 8.902457448369988e-02 1.393232887514451e-02
0.000000000000000e+00 0.000000000000000e+00 0.000000000000000e+00
-3.999636250205385e-02 2.479009922247000e-02 1.607858032499365e-02
-6.881393697526883e-02 9.601477805178132e-02 1.695424928262490e-02
-2.582932005293748e-02 2.878672198150634e-02 3.606219920625264e-03
        </DataArray>
        <DataArray type="Float64" Name="normal_averaged" NumberOfComponents="3" format="ascii">
0.000000000000000e+00 0.000000000000000e+00 0.000000000000000e+00
0.000000000000000e+00 0.000000000000000e+00 0.000000000000000e+00
0.000000000000000e+00 0.000000000000000e+00 0.000000000000000e+00
0.000000000000000e+00 0.000000000000000e+00 0.000000000000000e+00
0.000000000000000e+00 0.000000000000000e+00 0.000000000000000e+00
0.000000000000000e+00 0.000000000000000e+00 0.000000000000000e+00
0.000000000000000e+00 0.000000000000000e+00 0.000000000000000e+00
0.000000000000000e+00 0.000000000000000e+00 0.000000000000000e+00
0.000000000000000e+00 0.000000000000000e+00 0.000000000000000e+00
0.000000000000000e+00 0.000000000000000e+00 0.000000000000000e+00
0.000000000000000e+00 0.000000000000000e+00 0.000000000000000e+00
0.000000000000000e+00 0.000000000000000e+00 0.000000000000000e+00
0.000000000000000e+00 0.000000000000000e+00 0.000000000000000e+00
0.000000000000000e+00 0.000000000000000e+00 0.000000000000000e+00
0.000000000000000e+00 0.000000000000000e+00 0.000000000000000e+00
0.000000000000000e+00 0.000000000000000e+00 0.000000000000000e+00
0.000000000000000e+00 0.000000000000000e+00 0.000000000000000e+00
0.000000000000000e+00 0.000000000000000e+00 0.000000000000000e+00
0.000000000000000e+00 0.000000000000000e+00 0.000000000000000e+00
0.000000000000000e+00 0.000000000000000e+00 0.000000000000000e+00