<?xml version="1.0" ?> 
<!-- 
# vtk DataFile Version 3.0
-->
<VTKFile type="UnstructuredGrid" version="0.1" compressor="vtkZLibDataCompressor" byte_order="LittleEndian">
  <UnstructuredGrid>
    <FieldData>
      <DataArray type="Float64" Name="TIME" NumberOfTuples="1" format="ascii">
1.000000000000000e+00 
      </DataArray>
    </FieldData>

    <Piece NumberOfPoints="270" NumberOfCells="0" >
      <Points>
        <DataArray type="Float64" NumberOfComponents="3" format="ascii">
1.500000000000000e+00 3.000000000000000e-01 1.850000000000000e+01
2.000000000000000e+00 3.000000000000000e-01 1.850000000000000e+01
1.707207993010000e+00 3.000000000000000e-01 1.799996097670000e+01
5.000000000000000e-01 3.000000000000000e-01 1.750000000000000e+01
7.544038015000000e-01 3.000000000000000e-01 1.799912997290000e+01
1.000000000000000e+00 3.000000000000000e-01 1.750000000000000e+01
0.000000000000000e+00 3.000000000000000e-01 1.800000000000000e+01
0.000000000000000e+00 3.000000000000000e-01 1.850000000000000e+01
2.924006335830000e-01 3.000000000000000e-01 1.799985499550000e+01
7.544038015000000e-01 3.000000000000000e-01 1.799912997290000e+01
5.000000000000000e-01 3.000000000000000e-01 1.750000000000000e+01
2.924006335830000e-01 3.000000000000000e-01 1.799985499550000e+01
7.544038015000000e-01 3.000000000000000e-01 1.799912997290000e+01
2.924006335830000e-01 3.000000000000000e-01 1.799985499550000e+01
5.000000000000000e-01 3.000000000000000e-01 1.850000000000000e+01
5.000000000000000e-01 3.000000000000000e-01 1.850000000000000e+01
1.000000000000000e+00 3.000000000000000e-01 1.850000000000000e+01
7.544038015000000e-01 3.000000000000000e-01 1.799912997290000e+01
1.000000000000000e+00 3.000000000000000e-01 1.750000000000000e+01
1.243247958050000e+00 3.000000000000000e-01 1.799976586030000e+01
1.500000000000000e+00 3.000000000000000e-01 1.750000000000000e+01
5.000000000000000e-01 3.000000000000000e-01 1.750000000000000e+01
0.000000000000000e+00 3.000000000000000e-01 1.750000000000000e+01
2.924006335830000e-01 3.000000000000000e-01 1.799985499550000e+01
1.243247958050000e+00 3.000000000000000e-01 1.799976586030000e+01
7.544038015000000e-01 3.000000000000000e-01 1.799912997290000e+01
1.000000000000000e+00 3.000000000000000e-01 1.850000000000000e+01
1.707207993010000e+00 3.000000000000000e-01 1.799996097670000e+01
2.000000000000000e+00 3.000000000000000e-01 1.750000000000000e+01
1.500000000000000e+00 3.000000000000000e-01 1.750000000000000e+01
1.500000000000000e+00 3.000000000000000e-01 1.750000000000000e+01
1.243247958050000e+00 3.000000000000000e-01 1.799976586030000e+01
1.707207993010000e+00 3.000000000000000e-01 1.799996097670000e+01
1.243247958050000e+00 3.000000000000000e-01 1.799976586030000e+01
1.000000000000000e+00 3.000000000000000e-01 1.850000000000000e+01
1.500000000000000e+00 3.000000000000000e-01 1.850000000000000e+01
1.707207993010000e+00 3.000000000000000e-01 1.799996097670000e+01
2.000000000000000e+00 3.000000000000000e-01 1.800000000000000e+01
2.000000000000000e+00 3.000000000000000e-01 1.750000000000000e+01
0.000000000000000e+00 3.000000000000000e-01 1.850000000000000e+01
5.000000000000000e-01 3.000000000000000e-01 1.850000000000000e+01
2.924006335830000e-01 3.000000000000000e-01 1.799985499550000e+01
1.243247958050000e+00 3.000000000000000e-01 1.799976586030000e+01
1.000000000000000e+00 3.000000000000000e-01 1.750000000000000e+01
7.544038015000000e-01 3.000000000000000e-01 1.799912997290000e+01
2.000000000000000e+00 3.000000000000000e-01 1.850000000000000e+01
2.000000000000000e+00 3.000000000000000e-01 1.800000000000000e+01
1.707207993010000e+00 3.000000000000000e-01 1.799996097670000e+01
0.000000000000000e+00 3.000000000000000e-01 1.750000000000000e+01
0.000000000000000e+00 3.000000000000000e-01 1.800000000000000e+01
2.924006335830000e-01 3.000000000000000e-01 1.799985499550000e+01
1.243247958050000e+00 3.000000000000000e-01 1.799976586030000e+01
1.500000000000000e+00 3.000000000000000e-01 1.850000000000000e+01
1.707207993010000e+00 3.000000000000000e-01 1.799996097670000e+01
0.000000000000000e+00 1.000000000000000e+00 2.050000000000000e+01
4.329390516020000e-01 9.014231956180000e-01 2.074976147080000e+01
5.000000000000000e-01 8.660254037839999e-01 2.000000000000000e+01
2.220099146240000e-01 9.750444081210000e-01 2.062488073540000e+01
4.668051728700000e-01 8.843601814770000e-01 2.037488073540000e+01
2.588190451030000e-01 9.659258262890000e-01 2.025000000000000e+01
7.282793318550000e-01 6.852803913680000e-01 2.048410264420000e+01
5.000000000000000e-01 8.660254037839999e-01 2.000000000000000e+01
4.329390516020000e-01 9.014231956180000e-01 2.074976147080000e+01
6.207533480730000e-01 7.840059188910000e-01 2.024205132210000e+01
4.668051728700000e-01 8.843601814770000e-01 2.037488073540000e+01
5.905814604920000e-01 8.069780285250000e-01 2.061693205750000e+01
4.329390516020000e-01 9.014231956180000e-01 2.074976147080000e+01
0.000000000000000e+00 1.000000000000000e+00 2.100000000000000e+01
5.000000000000000e-01 8.660254037839999e-01 2.150000000000000e+01
2.220099146240000e-01 9.750444081210000e-01 2.087488073540000e+01
2.588190451030000e-01 9.659258262890000e-01 2.125000000000000e+01
4.668051728700000e-01 8.843601814770000e-01 2.112488073540000e+01
7.282793318550000e-01 6.852803913680000e-01 2.048410264420000e+01
8.660254037839999e-01 5.000000000000000e-01 2.000000000000000e+01
5.000000000000000e-01 8.660254037839999e-01 2.000000000000000e+01
8.025173539410000e-01 5.966287762280000e-01 2.024205132210000e+01
7.071067811870000e-01 7.071067811870000e-01 2.000000000000000e+01
6.207533480730000e-01 7.840059188910000e-01 2.024205132210000e+01
8.660254037839999e-01 5.000000000000000e-01 2.000000000000000e+01
7.282793318550000e-01 6.852803913680000e-01 2.048410264420000e+01
9.504792740630000e-01 3.107879495360000e-01 2.074983937880000e+01
8.025173539410000e-01 5.966287762280000e-01 2.024205132210000e+01
8.600109077700000e-01 5.102756495440000e-01 2.061697101150000e+01
9.131662560400000e-01 4.075872775610000e-01 2.037491968940000e+01
9.504792740630000e-01 3.107879495360000e-01 2.074983937880000e+01
7.283520826140000e-01 6.852030675290000e-01 2.101496824100000e+01
8.660254037839999e-01 5.000000000000000e-01 2.150000000000000e+01
8.600379940360000e-01 5.102299959960001e-01 2.088240380990000e+01
8.025490242590000e-01 5.965861745470000e-01 2.125748412050000e+01
9.131662560400000e-01 4.075872775610000e-01 2.112491968940000e+01
8.660254037839999e-01 5.000000000000000e-01 2.150000000000000e+01
1.000000000000000e+00 0.000000000000000e+00 2.150000000000000e+01
9.504792740630000e-01 3.107879495360000e-01 2.074983937880000e+01
9.659258262890000e-01 2.588190451030000e-01 2.150000000000000e+01
9.875422203790000e-01 1.573542594550000e-01 2.112491968940000e+01
9.131662560400000e-01 4.075872775610000e-01 2.112491968940000e+01
0.000000000000000e+00 1.000000000000000e+00 2.150000000000000e+01
5.000000000000000e-01 8.660254037839999e-01 2.150000000000000e+01
0.000000000000000e+00 1.000000000000000e+00 2.100000000000000e+01
2.588190451030000e-01 9.659258262890000e-01 2.150000000000000e+01
2.588190451030000e-01 9.659258262890000e-01 2.125000000000000e+01
0.000000000000000e+00 1.000000000000000e+00 2.125000000000000e+01
0.000000000000000e+00 1.000000000000000e+00 2.050000000000000e+01
5.000000000000000e-01 8.660254037839999e-01 2.000000000000000e+01
0.000000000000000e+00 1.000000000000000e+00 2.000000000000000e+01
2.588190451030000e-01 9.659258262890000e-01 2.025000000000000e+01
2.588190451030000e-01 9.659258262890000e-01 2.000000000000000e+01
0.000000000000000e+00 1.000000000000000e+00 2.025000000000000e+01
9.504792740630000e-01 3.107879495360000e-01 2.074983937880000e+01
1.000000000000000e+00 0.000000000000000e+00 2.000000000000000e+01
8.660254037839999e-01 5.000000000000000e-01 2.000000000000000e+01
9.875422203790000e-01 1.573542594550000e-01 2.037491968940000e+01
9.659258262890000e-01 2.588190451030000e-01 2.000000000000000e+01
9.131662560400000e-01 4.075872775610000e-01 2.037491968940000e+01
4.329390516020000e-01 9.014231956180000e-01 2.074976147080000e+01
5.000000000000000e-01 8.660254037839999e-01 2.150000000000000e+01
7.283520826140000e-01 6.852030675290000e-01 2.101496824100000e+01
4.668051728700000e-01 8.843601814770000e-01 2.112488073540000e+01
6.207949653770000e-01 7.839729657090000e-01 2.125748412050000e+01
5.906242972910000e-01 8.069466769560000e-01 2.088236485590000e+01
7.282793318550000e-01 6.852803913680000e-01 2.048410264420000e+01
4.329390516020000e-01 9.014231956180000e-01 2.074976147080000e+01
7.283520826140000e-01 6.852030675290000e-01 2.101496824100000e+01
5.905814604920000e-01 8.069780285250000e-01 2.061693205750000e+01
5.906242972910000e-01 8.069466769560000e-01 2.088236485590000e+01
7.283157082610000e-01 6.852417304140000e-01 2.074953544260000e+01
7.282793318550000e-01 6.852803913680000e-01 2.048410264420000e+01
7.283520826140000e-01 6.852030675290000e-01 2.101496824100000e+01
9.504792740630000e-01 3.107879495360000e-01 2.074983937880000e+01
7.283157082610000e-01 6.852417304140000e-01 2.074953544260000e+01
8.600379940360000e-01 5.102299959960001e-01 2.088240380990000e+01
8.600109077700000e-01 5.102756495440000e-01 2.061697101150000e+01
4.329390516020000e-01 9.014231956180000e-01 2.074976147080000e+01
0.000000000000000e+00 1.000000000000000e+00 2.050000000000000e+01
0.000000000000000e+00 1.000000000000000e+00 2.100000000000000e+01
2.220099146240000e-01 9.750444081210000e-01 2.062488073540000e+01
0.000000000000000e+00 1.000000000000000e+00 2.075000000000000e+01
2.220099146240000e-01 9.750444081210000e-01 2.087488073540000e+01
1.000000000000000e+00 0.000000000000000e+00 2.050000000000000e+01
1.000000000000000e+00 0.000000000000000e+00 2.000000000000000e+01
9.504792740630000e-01 3.107879495360000e-01 2.074983937880000e+01
1.000000000000000e+00 0.000000000000000e+00 2.025000000000000e+01
9.875422203790000e-01 1.573542594550000e-01 2.037491968940000e+01
9.875422203790000e-01 1.573542594550000e-01 2.062491968940000e+01
9.504792740630000e-01 3.107879495360000e-01 2.074983937880000e+01
1.000000000000000e+00 0.000000000000000e+00 2.150000000000000e+01
1.000000000000000e+00 0.000000000000000e+00 2.100000000000000e+01
9.875422203790000e-01 1.573542594550000e-01 2.112491968940000e+01
1.000000000000000e+00 0.000000000000000e+00 2.125000000000000e+01
9.875422203790000e-01 1.573542594550000e-01 2.087491968940000e+01
7.283520826140000e-01 6.852030675290000e-01 2.101496824100000e+01
5.000000000000000e-01 8.660254037839999e-01 2.150000000000000e+01
8.660254037839999e-01 5.000000000000000e-01 2.150000000000000e+01
6.207949653770000e-01 7.839729657090000e-01 2.125748412050000e+01
7.071067811870000e-01 7.071067811870000e-01 2.150000000000000e+01
8.025490242590000e-01 5.965861745470000e-01 2.125748412050000e+01
9.504792740630000e-01 3.107879495360000e-01 2.074983937880000e+01
1.000000000000000e+00 0.000000000000000e+00 2.100000000000000e+01
1.000000000000000e+00 0.000000000000000e+00 2.050000000000000e+01
9.875422203790000e-01 1.573542594550000e-01 2.087491968940000e+01
1.000000000000000e+00 0.000000000000000e+00 2.075000000000000e+01
9.875422203790000e-01 1.573542594550000e-01 2.062491968940000e+01
1.243247958050000e+00 3.000000000000000e-01 2.299976586030000e+01
1.000000000000000e+00 3.000000000000000e-01 2.350000000000000e+01
1.500000000000000e+00 3.000000000000000e-01 2.350000000000000e+01
1.121623979020000e+00 3.000000000000000e-01 2.324988293010000e+01
1.250000000000000e+00 3.000000000000000e-01 2.350000000000000e+01
1.371623979020000e+00 3.000000000000000e-01 2.324988293010000e+01
1.000000000000000e+00 3.000000000000000e-01 2.250000000000000e+01
1.243247958050000e+00 3.000000000000000e-01 2.299976586030000e+01
1.500000000000000e+00 3.000000000000000e-01 2.250000000000000e+01
1.121623979020000e+00 3.000000000000000e-01 2.274988293010000e+01
1.371623979020000e+00 3.000000000000000e-01 2.274988293010000e+01
1.250000000000000e+00 3.000000000000000e-01 2.250000000000000e+01
1.243247958050000e+00 3.000000000000000e-01 2.299976586030000e+01
7.544038015000000e-01 3.000000000000000e-01 2.299912997290000e+01
1.000000000000000e+00 3.000000000000000e-01 2.350000000000000e+01
9.988258797739999e-01 3.000000000000000e-01 2.299944791660000e+01
8.772019007500000e-01 3.000000000000000e-01 2.324956498650000e+01
1.121623979020000e+00 3.000000000000000e-01 2.324988293010000e+01
5.000000000000000e-01 3.000000000000000e-01 2.350000000000000e+01
1.000000000000000e+00 3.000000000000000e-01 2.350000000000000e+01
7.544038015000000e-01 3.000000000000000e-01 2.299912997290000e+01
7.500000000000000e-01 3.000000000000000e-01 2.350000000000000e+01
8.772019007500000e-01 3.000000000000000e-01 2.324956498650000e+01
6.272019007500000e-01 3.000000000000000e-01 2.324956498650000e+01
1.243247958050000e+00 3.000000000000000e-01 2.299976586030000e+01
1.500000000000000e+00 3.000000000000000e-01 2.350000000000000e+01
1.707207993010000e+00 3.000000000000000e-01 2.299996097670000e+01
1.371623979020000e+00 3.000000000000000e-01 2.324988293010000e+01
1.603603996500000e+00 3.000000000000000e-01 2.324998048840000e+01
1.475227975530000e+00 3.000000000000000e-01 2.299986341850000e+01
7.544038015000000e-01 3.000000000000000e-01 2.299912997290000e+01
2.924006335830000e-01 3.000000000000000e-01 2.299985499550000e+01
5.000000000000000e-01 3.000000000000000e-01 2.350000000000000e+01
5.234022175420000e-01 3.000000000000000e-01 2.299949248420000e+01
3.962003167920000e-01 3.000000000000000e-01 2.324992749770000e+01
6.272019007500000e-01 3.000000000000000e-01 2.324956498650000e+01
2.000000000000000e+00 3.000000000000000e-01 2.350000000000000e+01
2.000000000000000e+00 3.000000000000000e-01 2.300000000000000e+01
1.707207993010000e+00 3.000000000000000e-01 2.299996097670000e+01
2.000000000000000e+00 3.000000000000000e-01 2.325000000000000e+01
1.853603996500000e+00 3.000000000000000e-01 2.299998048840000e+01
1.853603996500000e+00 3.000000000000000e-01 2.324998048840000e+01
1.500000000000000e+00 3.000000000000000e-01 2.350000000000000e+01
2.000000000000000e+00 3.000000000000000e-01 2.350000000000000e+01
1.707207993010000e+00 3.000000000000000e-01 2.299996097670000e+01
1.750000000000000e+00 3.000000000000000e-01 2.350000000000000e+01
1.853603996500000e+00 3.000000000000000e-01 2.324998048840000e+01
1.603603996500000e+00 3.000000000000000e-01 2.324998048840000e+01
1.707207993010000e+00 3.000000000000000e-01 2.299996097670000e+01
2.000000000000000e+00 3.000000000000000e-01 2.250000000000000e+01
1.500000000000000e+00 3.000000000000000e-01 2.250000000000000e+01
1.853603996500000e+00 3.000000000000000e-01 2.274998048840000e+01
1.750000000000000e+00 3.000000000000000e-01 2.250000000000000e+01
1.603603996500000e+00 3.000000000000000e-01 2.274998048840000e+01
0.000000000000000e+00 3.000000000000000e-01 2.300000000000000e+01
0.000000000000000e+00 3.000000000000000e-01 2.350000000000000e+01
2.924006335830000e-01 3.000000000000000e-01 2.299985499550000e+01
0.000000000000000e+00 3.000000000000000e-01 2.325000000000000e+01
1.462003167920000e-01 3.000000000000000e-01 2.324992749770000e+01
1.462003167920000e-01 3.000000000000000e-01 2.299992749770000e+01
5.000000000000000e-01 3.000000000000000e-01 2.250000000000000e+01
7.544038015000000e-01 3.000000000000000e-01 2.299912997290000e+01
1.000000000000000e+00 3.000000000000000e-01 2.250000000000000e+01
6.272019007500000e-01 3.000000000000000e-01 2.274956498650000e+01
8.772019007500000e-01 3.000000000000000e-01 2.274956498650000e+01
7.500000000000000e-01 3.000000000000000e-01 2.250000000000000e+01
0.000000000000000e+00 3.000000000000000e-01 2.250000000000000e+01
0.000000000000000e+00 3.000000000000000e-01 2.300000000000000e+01
2.924006335830000e-01 3.000000000000000e-01 2.299985499550000e+01
0.000000000000000e+00 3.000000000000000e-01 2.275000000000000e+01
1.462003167920000e-01 3.000000000000000e-01 2.299992749770000e+01
1.462003167920000e-01 3.000000000000000e-01 2.274992749770000e+01
7.544038015000000e-01 3.000000000000000e-01 2.299912997290000e+01
5.000000000000000e-01 3.000000000000000e-01 2.250000000000000e+01
2.924006335830000e-01 3.000000000000000e-01 2.299985499550000e+01
6.272019007500000e-01 3.000000000000000e-01 2.274956498650000e+01
3.962003167920000e-01 3.000000000000000e-01 2.274992749770000e+01
5.234022175420000e-01 3.000000000000000e-01 2.299949248420000e+01
1.500000000000000e+00 3.000000000000000e-01 2.250000000000000e+01
1.243247958050000e+00 3.000000000000000e-01 2.299976586030000e+01
1.707207993010000e+00 3.000000000000000e-01 2.299996097670000e+01
1.371623979020000e+00 3.000000000000000e-01 2.274988293010000e+01
1.475227975530000e+00 3.000000000000000e-01 2.299986341850000e+01
1.603603996500000e+00 3.000000000000000e-01 2.274998048840000e+01
1.243247958050000e+00 3.000000000000000e-01 2.299976586030000e+01
1.000000000000000e+00 3.000000000000000e-01 2.250000000000000e+01
7.544038015000000e-01 3.000000000000000e-01 2.299912997290000e+01
1.121623979020000e+00 3.000000000000000e-01 2.274988293010000e+01
8.772019007500000e-01 3.000000000000000e-01 2.274956498650000e+01
9.988258797739999e-01 3.000000000000000e-01 2.299944791660000e+01
0.000000000000000e+00 3.000000000000000e-01 2.350000000000000e+01
5.000000000000000e-01 3.000000000000000e-01 2.350000000000000e+01
2.924006335830000e-01 3.000000000000000e-01 2.299985499550000e+01
2.500000000000000e-01 3.000000000000000e-01 2.350000000000000e+01
3.962003167920000e-01 3.000000000000000e-01 2.324992749770000e+01
1.462003167920000e-01 3.000000000000000e-01 2.324992749770000e+01
5.000000000000000e-01 3.000000000000000e-01 2.250000000000000e+01
0.000000000000000e+00 3.000000000000000e-01 2.250000000000000e+01
2.924006335830000e-01 3.000000000000000e-01 2.299985499550000e+01
2.500000000000000e-01 3.000000000000000e-01 2.250000000000000e+01
1.462003167920000e-01 3.000000000000000e-01 2.274992749770000e+01
3.962003167920000e-01 3.000000000000000e-01 2.274992749770000e+01
1.707207993010000e+00 3.000000000000000e-01 2.299996097670000e+01
2.000000000000000e+00 3.000000000000000e-01 2.300000000000000e+01
2.000000000000000e+00 3.000000000000000e-01 2.250000000000000e+01
1.853603996500000e+00 3.000000000000000e-01 2.299998048840000e+01
2.000000000000000e+00 3.000000000000000e-01 2.275000000000000e+01
1.853603996500000e+00 3.000000000000000e-01 2.274998048840000e+01
        </DataArray>
      </Points>

      <Cells>
        <DataArray type="Int32" Name="connectivity" format="ascii">

        </DataArray>
        <DataArray type="Int32" Name="offsets" format="ascii">

        </DataArray>
        <DataArray type="UInt8" Name="types" format="ascii">

        </DataArray>
      </Cells>

  <PointData>
        <DataArray type="Int32" Name="coupling_id" format="ascii">
8
8
8
8
8
8
8
8
8
8
8
8
8
8
8
8
8
8
8
8
8
8
8
8
8
8
8
8
8
8
8
8
8
8
8
8
8
8
8
8
8
8
8
8
8
8
8
8
8
8
8
8
8
8
9
9
9
9
9
9
9
9
9
9
9
9
9
9
9
9
9
9
9
9
9
9
9
9
9
9
9
9
9
9
9
9
9
9
9
9
9
9
9
9
9
9
9
9
9
9
9
9
9
9
9
9
9
9
9
9
9
9
9
9
9
9
9
9
9
9
9
9
9
9
9
9
9
9
9
9
9
9
9
9
9
9
9
9
9
9
9
9
9
9
9
9
9
9
9
9
9
9
9
9
9
9
9
9
9
9
9
9
10
10
10
10
10
10
10
10
10
10
10
10
10
10
10
10
10
10
10
10
10
10
10
10
10
10
10
10
10
10
10
10
10
10
10
10
10
10
10
10
10
10
10
10
10
10
10
10
10
10
10
10
10
10
10
10
10
10
10
10
10
10
10
10
10
10
10
10
10
10
10
10
10
10
10
10
10
10
10
10
10
10
10
10
10
10
10
10
10
10
10
10
10
10
10
10
10
10
10
10
10
10
10
10
10
10
10
10
        </DataArray>
        <DataArray type="Float64" Name="displacement" NumberOfComponents="3" format="ascii">
-4.440892098500626e-16 1.110223024625157e-16 0.000000000000000e+00
-2.220446049250313e-15 5.551115123125783e-16 0.000000000000000e+00
2.220446049250313e-16 -2.220446049250313e-16 0.000000000000000e+00
-1.110223024625157e-16 -1.665334536937735e-16 -3.552713678800501e-15
0.000000000000000e+00 3.330669073875470e-16 -3.552713678800501e-15
6.661338147750939e-16 -1.665334536937735e-16 0.000000000000000e+00
0.000000000000000e+00 0.000000000000000e+00 0.000000000000000e+00
0.000000000000000e+00 0.000000000000000e+00 0.000000000000000e+00
5.551115123125783e-17 2.775557561562891e-16 0.000000000000000e+00
0.000000000000000e+00 3.330669073875470e-16 -3.552713678800501e-15
-1.110223024625157e-16 -1.665334536937735e-16 -3.552713678800501e-15
5.551115123125783e-17 2.775557561562891e-16 0.000000000000000e+00
0.000000000000000e+00 3.330669073875470e-16 -3.552713678800501e-15
5.551115123125783e-17 2.775557561562891e-16 0.000000000000000e+00
-1.110223024625157e-16 4.440892098500626e-16 0.000000000000000e+00
-1.110223024625157e-16 4.440892098500626e-16 0.000000000000000e+00
-7.771561172376096e-16 3.330669073875470e-16 0.000000000000000e+00
0.000000000000000e+00 3.330669073875470e-16 -3.552713678800501e-15
6.661338147750939e-16 -1.665334536937735e-16 0.000000000000000e+00
4.440892098500626e-16 5.551115123125783e-17 0.000000000000000e+00
-2.220446049250313e-16 -4.996003610813204e-16 0.000000000000000e+00
-1.110223024625157e-16 -1.665334536937735e-16 -3.552713678800501e-15
0.000000000000000e+00 0.000000000000000e+00 0.000000000000000e+00
5.551115123125783e-17 2.775557561562891e-16 0.000000000000000e+00
4.440892098500626e-16 5.551115123125783e-17 0.000000000000000e+00
0.000000000000000e+00 3.330669073875470e-16 -3.552713678800501e-15
-7.771561172376096e-16 3.330669073875470e-16 0.000000000000000e+00
2.220446049250313e-16 -2.220446049250313e-16 0.000000000000000e+00
4.440892098500626e-16 -6.661338147750939e-16 0.000000000000000e+00
-2.220446049250313e-16 -4.996003610813204e-16 0.000000000000000e+00
-2.220446049250313e-16 -4.996003610813204e-16 0.000000000000000e+00
4.440892098500626e-16 5.551115123125783e-17 0.000000000000000e+00
2.220446049250313e-16 -2.220446049250313e-16 0.000000000000000e+00
4.440892098500626e-16 5.551115123125783e-17 0.000000000000000e+00
-7.771561172376096e-16 3.330669073875470e-16 0.000000000000000e+00
-4.440892098500626e-16 1.110223024625157e-16 0.000000000000000e+00
2.220446049250313e-16 -2.220446049250313e-16 0.000000000000000e+00
0.000000000000000e+00 -5.551115123125783e-17 0.000000000000000e+00
4.440892098500626e-16 -6.661338147750939e-16 0.000000000000000e+00
0.000000000000000e+00 0.000000000000000e+00 0.000000000000000e+00
-1.110223024625157e-16 4.440892098500626e-16 0.000000000000000e+00
5.551115123125783e-17 2.775557561562891e-16 0.000000000000000e+00
4.440892098500626e-16 5.551115123125783e-17 0.000000000000000e+00
6.661338147750939e-16 -1.665334536937735e-16 0.000000000000000e+00
0.000000000000000e+00 3.330669073875470e-16 -3.552713678800501e-15
-2.220446049250313e-15 5.551115123125783e-16 0.000000000000000e+00
0.000000000000000e+00 -5.551115123125783e-17 0.000000000000000e+00
2.220446049250313e-16 -2.220446049250313e-16 0.000000000000000e+00
0.000000000000000e+00 0.000000000000000e+00 0.000000000000000e+00
0.000000000000000e+00 0.000000000000000e+00 0.000000000000000e+00
5.551115123125783e-17 2.775557561562891e-16 0.000000000000000e+00
4.440892098500626e-16 5.551115123125783e-17 0.000000000000000e+00
-4.440892098500626e-16 1.110223024625157e-16 0.000000000000000e+00
2.220446049250313e-16 -2.220446049250313e-16 0.000000000000000e+00
0.000000000000000e+00 0.000000000000000e+00 0.000000000000000e+00
-2.987641201124269e-05 5.915208317686105e-05 6.360523784820771e-05
-3.524718762226708e-05 2.290383951353281e-04 -2.542534749494507e-05
-2.706998757279200e-05 2.269533617194064e-05 4.037306733195578e-05
-1.310214391725406e-05 2.294252652551565e-04 2.054232076176277e-05
-4.243417221655443e-05 1.003109889428089e-04 3.507007999559164e-06
1.729560739340830e-04 4.556281091170344e-04 5.327749689598704e-05
-3.524718762226708e-05 2.290383951353281e-04 -2.542534749494507e-05
-2.987641201124269e-05 5.915208317686105e-05 6.360523784820771e-05
3.654604913583270e-05 3.250210915778373e-04 -8.211589037188105e-06
-1.310214391725406e-05 2.294252652551565e-04 2.054232076176277e-05
8.846792642391854e-05 3.476606085681677e-04 4.196951774915192e-05
-2.987641201124269e-05 5.915208317686105e-05 6.360523784820771e-05
0.000000000000000e+00 0.000000000000000e+00 0.000000000000000e+00
-8.577099983125835e-05 -2.812251079137296e-04 -4.476905939299058e-05
-2.615250229681676e-05 -1.091926415788258e-04 3.323780223141171e-05
-8.177066115955256e-05 -3.296111244567301e-04 9.425222160075464e-06
-2.022047607943001e-04 -3.980011284575591e-04 -1.478473460991836e-05
1.729560739340830e-04 4.556281091170344e-04 5.327749689598704e-05
1.535560556811255e-04 5.365389409875965e-04 4.460279281204294e-05
-3.524718762226708e-05 2.290383951353281e-04 -2.542534749494507e-05
7.138682779117556e-05 3.882479378165549e-04 3.095845655565199e-05
5.799662642336223e-05 3.731946842896461e-04 2.727294962312499e-06
3.654604913583270e-05 3.250210915778373e-04 -8.211589037188105e-06
1.535560556811255e-04 5.365389409875965e-04 4.460279281204294e-05
1.729560739340830e-04 4.556281091170344e-04 5.327749689598704e-05
2.001705895697814e-04 2.487282284683312e-04 -1.084967845095264e-04
7.138682779117556e-05 3.882479378165549e-04 3.095845655565199e-05
1.531010698232471e-04 3.313273238007008e-04 7.559414090252403e-06
2.596340856353407e-05 3.017917738470377e-04 1.428807382097830e-05
2.001705895697814e-04 2.487282284683312e-04 -1.084967845095264e-04
6.451109577210179e-05 7.623371062004392e-05 9.688855709555355e-05
-7.951000869821367e-05 -2.254029983576045e-04 4.507428255351442e-05
1.906543565159957e-04 1.914241095896108e-04 2.410249226869610e-05
-1.566736767288912e-05 -1.003853479764061e-04 7.924603398379304e-05
1.192087264036967e-04 2.649512794022924e-05 -2.552854257942272e-05
-7.951000869821367e-05 -2.254029983576045e-04 4.507428255351442e-05
1.413694083816086e-04 -1.624799901913634e-04 -2.506950986109757e-04
2.001705895697814e-04 2.487282284683312e-04 -1.084967845095264e-04
3.373491577896015e-05 -1.808091377028531e-04 -8.829960812661852e-05
1.696652021987433e-04 4.042427162403994e-05 -1.680460868946909e-04
1.192087264036967e-04 2.649512794022924e-05 -2.552854257942272e-05
0.000000000000000e+00 0.000000000000000e+00 0.000000000000000e+00
-8.577099983125835e-05 -2.812251079137296e-04 -4.476905939299058e-05
0.000000000000000e+00 0.000000000000000e+00 0.000000000000000e+00
6.663134011469785e-05 -1.056164879857935e-04 1.445123982435348e-05
-8.177066115955256e-05 -3.296111244567301e-04 9.425222160075464e-06
0.000000000000000e+00 0.000000000000000e+00 0.000000000000000e+00
0.000000000000000e+00 0.000000000000000e+00 0.000000000000000e+00
-3.524718762226708e-05 2.290383951353281e-04 -2.542534749494507e-05
0.000000000000000e+00 0.000000000000000e+00 0.000000000000000e+00
-4.243417221655443e-05 1.003109889428089e-04 3.507007999559164e-06
-4.934773027354122e-05 8.803765357778826e-05 -7.653917442951297e-06
0.000000000000000e+00 0.000000000000000e+00 0.000000000000000e+00
2.001705895697814e-04 2.487282284683312e-04 -1.084967845095264e-04
1.393767565398552e-03 1.274855347462394e-03 -1.060035548654525e-04
1.535560556811255e-04 5.365389409875965e-04 4.460279281204294e-05
2.969569792495852e-04 4.707729144425299e-04 -5.783819934990220e-05
5.887737671744775e-04 8.902988726883221e-04 3.902635217656325e-05
2.596340856353407e-05 3.017917738470377e-04 1.428807382097830e-05
-2.987641201124269e-05 5.915208317686105e-05 6.360523784820771e-05
-8.577099983125835e-05 -2.812251079137296e-04 -4.476905939299058e-05
6.451109577210179e-05 7.623371062004392e-05 9.688855709555355e-05
-2.022047607943001e-04 -3.980011284575591e-04 -1.478473460991836e-05
-1.121520628537542e-04 -2.357580061914666e-04 5.833612669192689e-05
5.310820565307406e-05 1.014898645552709e-04 8.779757126831100e-05
1.729560739340830e-04 4.556281091170344e-04 5.327749689598704e-05
-2.987641201124269e-05 5.915208317686105e-05 6.360523784820771e-05
6.451109577210179e-05 7.623371062004392e-05 9.688855709555355e-05
8.846792642391854e-05 3.476606085681677e-04 4.196951774915192e-05
5.310820565307406e-05 1.014898645552709e-04 8.779757126831100e-05
3.496810639592729e-04 5.535180493198011e-04 1.047238868174816e-04
1.729560739340830e-04 4.556281091170344e-04 5.327749689598704e-05
6.451109577210179e-05 7.623371062004392e-05 9.688855709555355e-05
2.001705895697814e-04 2.487282284683312e-04 -1.084967845095264e-04
3.496810639592729e-04 5.535180493198011e-04 1.047238868174816e-04
1.906543565159957e-04 1.914241095896108e-04 2.410249226869610e-05
1.531010698232471e-04 3.313273238007008e-04 7.559414090252403e-06
-2.987641201124269e-05 5.915208317686105e-05 6.360523784820771e-05
0.000000000000000e+00 0.000000000000000e+00 0.000000000000000e+00
0.000000000000000e+00 0.000000000000000e+00 0.000000000000000e+00
-2.706998757279200e-05 2.269533617194064e-05 4.037306733195578e-05
0.000000000000000e+00 0.000000000000000e+00 0.000000000000000e+00
-2.615250229681676e-05 -1.091926415788258e-04 3.323780223141171e-05
3.121074886833775e-04 3.527264978678081e-04 -1.804614498936985e-04
1.393767565398552e-03 1.274855347462394e-03 -1.060035548654525e-04
2.001705895697814e-04 2.487282284683312e-04 -1.084967845095264e-04
7.206698178805482e-04 7.052950025112811e-04 -1.585752337369684e-04
2.969569792495852e-04 4.707729144425299e-04 -5.783819934990220e-05
1.817540551637409e-04 2.750580094888211e-04 -1.185326334258718e-04
2.001705895697814e-04 2.487282284683312e-04 -1.084967845095264e-04
1.413694083816086e-04 -1.624799901913634e-04 -2.506950986109757e-04
2.077853120721063e-04 1.067121317579477e-04 -2.558941899231115e-04
1.696652021987433e-04 4.042427162403994e-05 -1.680460868946909e-04
1.905308780338899e-04 -2.642618229030701e-05 -2.565551534665644e-04
1.943799387513767e-04 1.766007560536631e-04 -1.722699239543601e-04
6.451109577210179e-05 7.623371062004392e-05 9.688855709555355e-05
-8.577099983125835e-05 -2.812251079137296e-04 -4.476905939299058e-05
-7.951000869821367e-05 -2.254029983576045e-04 4.507428255351442e-05
-1.121520628537542e-04 -2.357580061914666e-04 5.833612669192689e-05
-1.361415631071505e-04 -2.656798450775266e-04 6.014482707072943e-05
-1.566736767288912e-05 -1.003853479764061e-04 7.924603398379304e-05
2.001705895697814e-04 2.487282284683312e-04 -1.084967845095264e-04