<?xml version="1.0" ?> 
<!-- 
# vtk DataFile Version 3.0
-->
<VTKFile type="UnstructuredGrid" version="0.1" compressor="vtkZLibDataCompressor" byte_order="LittleEndian">
  <UnstructuredGrid>
    <FieldData>
      <DataArray type="Float64" Name="TIME" NumberOfTuples="1" format="ascii">
1.000000000000000e+00 
      </DataArray>
      <DataArray type="Float64" Name="sum_coupling_force_beam" NumberOfTuples="1" NumberOfComponents="3" format="ascii">
2.731638092129919e-02 5.399855696697334e-02 5.249712416790061e-03 
      </DataArray>
      <DataArray type="Float64" Name="sum_coupling_force_solid" NumberOfTuples="1" NumberOfComponents="3" format="ascii">
-2.731638092129919e-02 -5.399855696697334e-02 -5.249712416790059e-03 
      </DataArray>
      <DataArray type="Float64" Name="sum_coupling_moment_beam" NumberOfTuples="1" NumberOfComponents="3" format="ascii">
-5.547313445857572e-14 -2.820621797333150e-13 4.947204660612337e-15 
      </DataArray>
      <DataArray type="Float64" Name="sum_coupling_moment_solid" NumberOfTuples="1" NumberOfComponents="3" format="ascii">
5.089915001042677e-01 -2.361539475638118e-01 2.418973706122939e-02 
      </DataArray>
    </FieldData>

    <Piece NumberOfPoints="267" NumberOfCells="0" >
      <Points>
        <DataArray type="Float64" NumberOfComponents="3" format="ascii">
7.000000000000000e-01 0.000000000000000e+00 0.000000000000000e+00
6.062177826489999e-01 3.500000000000000e-01 0.000000000000000e+00
6.062177826489999e-01 3.500000000000000e-01 5.000000000000000e-01
7.000000000000000e-01 0.000000000000000e+00 5.000000000000000e-01
1.000000000000000e+00 0.000000000000000e+00 0.000000000000000e+00
8.660254037839999e-01 5.000000000000000e-01 0.000000000000000e+00
8.660254037839999e-01 5.000000000000000e-01 5.000000000000000e-01
1.000000000000000e+00 0.000000000000000e+00 5.000000000000000e-01
3.500000000000000e-01 6.062177826489999e-01 0.000000000000000e+00
3.500000000000000e-01 6.062177826489999e-01 5.000000000000000e-01
5.000000000000000e-01 8.660254037839999e-01 0.000000000000000e+00
5.000000000000000e-01 8.660254037839999e-01 5.000000000000000e-01
0.000000000000000e+00 7.000000000000000e-01 0.000000000000000e+00
0.000000000000000e+00 7.000000000000000e-01 5.000000000000000e-01
0.000000000000000e+00 1.000000000000000e+00 0.000000000000000e+00
0.000000000000000e+00 1.000000000000000e+00 5.000000000000000e-01
6.062177826489999e-01 3.500000000000000e-01 1.000000000000000e+00
7.000000000000000e-01 0.000000000000000e+00 1.000000000000000e+00
8.660254037839999e-01 5.000000000000000e-01 1.000000000000000e+00
1.000000000000000e+00 0.000000000000000e+00 1.000000000000000e+00
3.500000000000000e-01 6.062177826489999e-01 1.000000000000000e+00
5.000000000000000e-01 8.660254037839999e-01 1.000000000000000e+00
0.000000000000000e+00 7.000000000000000e-01 1.000000000000000e+00
0.000000000000000e+00 1.000000000000000e+00 1.000000000000000e+00
6.062177826489999e-01 3.500000000000000e-01 1.500000000000000e+00
7.000000000000000e-01 0.000000000000000e+00 1.500000000000000e+00
8.660254037839999e-01 5.000000000000000e-01 1.500000000000000e+00
1.000000000000000e+00 0.000000000000000e+00 1.500000000000000e+00
3.500000000000000e-01 6.062177826489999e-01 1.500000000000000e+00
5.000000000000000e-01 8.660254037839999e-01 1.500000000000000e+00
0.000000000000000e+00 7.000000000000000e-01 1.500000000000000e+00
0.000000000000000e+00 1.000000000000000e+00 1.500000000000000e+00
0.000000000000000e+00 0.000000000000000e+00 3.500000000000000e+00
0.000000000000000e+00 0.000000000000000e+00 3.000000000000000e+00
0.000000000000000e+00 3.000000000000000e-01 3.000000000000000e+00
0.000000000000000e+00 3.000000000000000e-01 3.500000000000000e+00
5.000000000000000e-01 0.000000000000000e+00 3.500000000000000e+00
5.000000000000000e-01 0.000000000000000e+00 3.000000000000000e+00
5.000000000000000e-01 3.000000000000000e-01 3.000000000000000e+00
5.000000000000000e-01 3.000000000000000e-01 3.500000000000000e+00
0.000000000000000e+00 0.000000000000000e+00 2.500000000000000e+00
0.000000000000000e+00 3.000000000000000e-01 2.500000000000000e+00
5.000000000000000e-01 0.000000000000000e+00 2.500000000000000e+00
5.000000000000000e-01 3.000000000000000e-01 2.500000000000000e+00
1.000000000000000e+00 0.000000000000000e+00 3.500000000000000e+00
1.000000000000000e+00 0.000000000000000e+00 3.000000000000000e+00
1.000000000000000e+00 3.000000000000000e-01 3.000000000000000e+00
1.000000000000000e+00 3.000000000000000e-01 3.500000000000000e+00
1.000000000000000e+00 0.000000000000000e+00 2.500000000000000e+00
1.000000000000000e+00 3.000000000000000e-01 2.500000000000000e+00
1.500000000000000e+00 0.000000000000000e+00 3.500000000000000e+00
1.500000000000000e+00 0.000000000000000e+00 3.000000000000000e+00
1.500000000000000e+00 3.000000000000000e-01 3.000000000000000e+00
1.500000000000000e+00 3.000000000000000e-01 3.500000000000000e+00
1.500000000000000e+00 0.000000000000000e+00 2.500000000000000e+00
1.500000000000000e+00 3.000000000000000e-01 2.500000000000000e+00
2.000000000000000e+00 0.000000000000000e+00 3.500000000000000e+00
2.000000000000000e+00 0.000000000000000e+00 3.000000000000000e+00
2.000000000000000e+00 3.000000000000000e-01 3.000000000000000e+00
2.000000000000000e+00 3.000000000000000e-01 3.500000000000000e+00
2.000000000000000e+00 0.000000000000000e+00 2.500000000000000e+00
2.000000000000000e+00 3.000000000000000e-01 2.500000000000000e+00
7.000000000000000e-01 0.000000000000000e+00 5.000000000000000e+00
6.062177826489999e-01 3.500000000000000e-01 5.000000000000000e+00
6.062177826489999e-01 3.500000000000000e-01 5.500000000000000e+00
7.000000000000000e-01 0.000000000000000e+00 5.500000000000000e+00
1.000000000000000e+00 0.000000000000000e+00 5.000000000000000e+00
8.660254037839999e-01 5.000000000000000e-01 5.000000000000000e+00
8.660254037839999e-01 5.000000000000000e-01 5.500000000000000e+00
1.000000000000000e+00 0.000000000000000e+00 5.500000000000000e+00
6.761480784020000e-01 1.811733315720000e-01 5.000000000000000e+00
6.062177826489999e-01 3.500000000000000e-01 5.250000000000000e+00
6.761480784020000e-01 1.811733315720000e-01 5.500000000000000e+00
7.000000000000000e-01 0.000000000000000e+00 5.250000000000000e+00
8.500000000000000e-01 0.000000000000000e+00 5.000000000000000e+00
7.361215932170000e-01 4.250000000000000e-01 5.000000000000000e+00
7.361215932170000e-01 4.250000000000000e-01 5.500000000000000e+00
8.500000000000000e-01 0.000000000000000e+00 5.500000000000000e+00
9.659258262890000e-01 2.588190451030000e-01 5.000000000000000e+00
8.660254037839999e-01 5.000000000000000e-01 5.250000000000000e+00
9.659258262890000e-01 2.588190451030000e-01 5.500000000000000e+00
1.000000000000000e+00 0.000000000000000e+00 5.250000000000000e+00
3.500000000000000e-01 6.062177826489999e-01 5.000000000000000e+00
3.500000000000000e-01 6.062177826489999e-01 5.500000000000000e+00
5.000000000000000e-01 8.660254037839999e-01 5.000000000000000e+00
5.000000000000000e-01 8.660254037839999e-01 5.500000000000000e+00
4.949747468310000e-01 4.949747468310000e-01 5.000000000000000e+00
3.500000000000000e-01 6.062177826489999e-01 5.250000000000000e+00
4.949747468310000e-01 4.949747468310000e-01 5.500000000000000e+00
4.250000000000000e-01 7.361215932170000e-01 5.000000000000000e+00
4.250000000000000e-01 7.361215932170000e-01 5.500000000000000e+00
7.071067811870000e-01 7.071067811870000e-01 5.000000000000000e+00
5.000000000000000e-01 8.660254037839999e-01 5.250000000000000e+00
7.071067811870000e-01 7.071067811870000e-01 5.500000000000000e+00
0.000000000000000e+00 7.000000000000000e-01 5.000000000000000e+00
0.000000000000000e+00 7.000000000000000e-01 5.500000000000000e+00
0.000000000000000e+00 1.000000000000000e+00 5.000000000000000e+00
0.000000000000000e+00 1.000000000000000e+00 5.500000000000000e+00
1.811733315720000e-01 6.761480784020000e-01 5.000000000000000e+00
0.000000000000000e+00 7.000000000000000e-01 5.250000000000000e+00
1.811733315720000e-01 6.761480784020000e-01 5.500000000000000e+00
0.000000000000000e+00 8.500000000000000e-01 5.000000000000000e+00
0.000000000000000e+00 8.500000000000000e-01 5.500000000000000e+00
2.588190451030000e-01 9.659258262890000e-01 5.000000000000000e+00
0.000000000000000e+00 1.000000000000000e+00 5.250000000000000e+00
2.588190451030000e-01 9.659258262890000e-01 5.500000000000000e+00
6.062177826489999e-01 3.500000000000000e-01 6.000000000000000e+00
7.000000000000000e-01 0.000000000000000e+00 6.000000000000000e+00
8.660254037839999e-01 5.000000000000000e-01 6.000000000000000e+00
1.000000000000000e+00 0.000000000000000e+00 6.000000000000000e+00
6.062177826489999e-01 3.500000000000000e-01 5.750000000000000e+00
6.761480784020000e-01 1.811733315720000e-01 6.000000000000000e+00
7.000000000000000e-01 0.000000000000000e+00 5.750000000000000e+00
7.361215932170000e-01 4.250000000000000e-01 6.000000000000000e+00
8.500000000000000e-01 0.000000000000000e+00 6.000000000000000e+00
8.660254037839999e-01 5.000000000000000e-01 5.750000000000000e+00
9.659258262890000e-01 2.588190451030000e-01 6.000000000000000e+00
1.000000000000000e+00 0.000000000000000e+00 5.750000000000000e+00
3.500000000000000e-01 6.062177826489999e-01 6.000000000000000e+00
5.000000000000000e-01 8.660254037839999e-01 6.000000000000000e+00
3.500000000000000e-01 6.062177826489999e-01 5.750000000000000e+00
4.949747468310000e-01 4.949747468310000e-01 6.000000000000000e+00
4.250000000000000e-01 7.361215932170000e-01 6.000000000000000e+00
5.000000000000000e-01 8.660254037839999e-01 5.750000000000000e+00
7.071067811870000e-01 7.071067811870000e-01 6.000000000000000e+00
0.000000000000000e+00 7.000000000000000e-01 6.000000000000000e+00
0.000000000000000e+00 1.000000000000000e+00 6.000000000000000e+00
0.000000000000000e+00 7.000000000000000e-01 5.750000000000000e+00
1.811733315720000e-01 6.761480784020000e-01 6.000000000000000e+00
0.000000000000000e+00 8.500000000000000e-01 6.000000000000000e+00
0.000000000000000e+00 1.000000000000000e+00 5.750000000000000e+00
2.588190451030000e-01 9.659258262890000e-01 6.000000000000000e+00
6.062177826489999e-01 3.500000000000000e-01 6.500000000000000e+00
7.000000000000000e-01 0.000000000000000e+00 6.500000000000000e+00
8.660254037839999e-01 5.000000000000000e-01 6.500000000000000e+00
1.000000000000000e+00 0.000000000000000e+00 6.500000000000000e+00
6.062177826489999e-01 3.500000000000000e-01 6.250000000000000e+00
6.761480784020000e-01 1.811733315720000e-01 6.500000000000000e+00
7.000000000000000e-01 0.000000000000000e+00 6.250000000000000e+00
7.361215932170000e-01 4.250000000000000e-01 6.500000000000000e+00
8.500000000000000e-01 0.000000000000000e+00 6.500000000000000e+00
8.660254037839999e-01 5.000000000000000e-01 6.250000000000000e+00
9.659258262890000e-01 2.588190451030000e-01 6.500000000000000e+00
1.000000000000000e+00 0.000000000000000e+00 6.250000000000000e+00
3.500000000000000e-01 6.062177826489999e-01 6.500000000000000e+00
5.000000000000000e-01 8.660254037839999e-01 6.500000000000000e+00
3.500000000000000e-01 6.062177826489999e-01 6.250000000000000e+00
4.949747468310000e-01 4.949747468310000e-01 6.500000000000000e+00
4.250000000000000e-01 7.361215932170000e-01 6.500000000000000e+00
5.000000000000000e-01 8.660254037839999e-01 6.250000000000000e+00
7.071067811870000e-01 7.071067811870000e-01 6.500000000000000e+00
0.000000000000000e+00 7.000000000000000e-01 6.500000000000000e+00
0.000000000000000e+00 1.000000000000000e+00 6.500000000000000e+00
0.000000000000000e+00 7.000000000000000e-01 6.250000000000000e+00
1.811733315720000e-01 6.761480784020000e-01 6.500000000000000e+00
0.000000000000000e+00 8.500000000000000e-01 6.500000000000000e+00
0.000000000000000e+00 1.000000000000000e+00 6.250000000000000e+00
2.588190451030000e-01 9.659258262890000e-01 6.500000000000000e+00
0.000000000000000e+00 0.000000000000000e+00 8.500000000000000e+00
0.000000000000000e+00 0.000000000000000e+00 8.000000000000000e+00
0.000000000000000e+00 3.000000000000000e-01 8.000000000000000e+00
0.000000000000000e+00 3.000000000000000e-01 8.500000000000000e+00
5.000000000000000e-01 0.000000000000000e+00 8.500000000000000e+00
5.000000000000000e-01 0.000000000000000e+00 8.000000000000000e+00
5.000000000000000e-01 3.000000000000000e-01 8.000000000000000e+00
5.000000000000000e-01 3.000000000000000e-01 8.500000000000000e+00
0.000000000000000e+00 0.000000000000000e+00 8.250000000000000e+00
0.000000000000000e+00 1.500000000000000e-01 8.000000000000000e+00
0.000000000000000e+00 3.000000000000000e-01 8.250000000000000e+00
0.000000000000000e+00 1.500000000000000e-01 8.500000000000000e+00
2.500000000000000e-01 0.000000000000000e+00 8.500000000000000e+00
2.500000000000000e-01 0.000000000000000e+00 8.000000000000000e+00
2.500000000000000e-01 3.000000000000000e-01 8.000000000000000e+00
2.500000000000000e-01 3.000000000000000e-01 8.500000000000000e+00
5.000000000000000e-01 0.000000000000000e+00 8.250000000000000e+00
5.000000000000000e-01 1.500000000000000e-01 8.000000000000000e+00
5.000000000000000e-01 3.000000000000000e-01 8.250000000000000e+00
5.000000000000000e-01 1.500000000000000e-01 8.500000000000000e+00
0.000000000000000e+00 0.000000000000000e+00 7.500000000000000e+00
0.000000000000000e+00 3.000000000000000e-01 7.500000000000000e+00
5.000000000000000e-01 0.000000000000000e+00 7.500000000000000e+00
5.000000000000000e-01 3.000000000000000e-01 7.500000000000000e+00
0.000000000000000e+00 0.000000000000000e+00 7.750000000000000e+00
0.000000000000000e+00 1.500000000000000e-01 7.500000000000000e+00
0.000000000000000e+00 3.000000000000000e-01 7.750000000000000e+00
2.500000000000000e-01 0.000000000000000e+00 7.500000000000000e+00
2.500000000000000e-01 3.000000000000000e-01 7.500000000000000e+00
5.000000000000000e-01 0.000000000000000e+00 7.750000000000000e+00
5.000000000000000e-01 1.500000000000000e-01 7.500000000000000e+00
5.000000000000000e-01 3.000000000000000e-01 7.750000000000000e+00
1.000000000000000e+00 0.000000000000000e+00 8.500000000000000e+00
1.000000000000000e+00 0.000000000000000e+00 8.000000000000000e+00
1.000000000000000e+00 3.000000000000000e-01 8.000000000000000e+00
1.000000000000000e+00 3.000000000000000e-01 8.500000000000000e+00
7.500000000000000e-01 0.000000000000000e+00 8.500000000000000e+00
7.500000000000000e-01 0.000000000000000e+00 8.000000000000000e+00
7.500000000000000e-01 3.000000000000000e-01 8.000000000000000e+00
7.500000000000000e-01 3.000000000000000e-01 8.500000000000000e+00
1.000000000000000e+00 0.000000000000000e+00 8.250000000000000e+00
1.000000000000000e+00 1.500000000000000e-01 8.000000000000000e+00
1.000000000000000e+00 3.000000000000000e-01 8.250000000000000e+00
1.000000000000000e+00 1.500000000000000e-01 8.500000000000000e+00
1.000000000000000e+00 0.000000000000000e+00 7.500000000000000e+00
1.000000000000000e+00 3.000000000000000e-01 7.500000000000000e+00
7.500000000000000e-01 0.000000000000000e+00 7.500000000000000e+00
7.500000000000000e-01 3.000000000000000e-01 7.500000000000000e+00
1.000000000000000e+00 0.000000000000000e+00 7.750000000000000e+00
1.000000000000000e+00 1.500000000000000e-01 7.500000000000000e+00
1.000000000000000e+00 3.000000000000000e-01 7.750000000000000e+00
1.500000000000000e+00 0.000000000000000e+00 8.500000000000000e+00
1.500000000000000e+00 0.000000000000000e+00 8.000000000000000e+00
1.500000000000000e+00 3.000000000000000e-01 8.000000000000000e+00
1.500000000000000e+00 3.000000000000000e-01 8.500000000000000e+00
1.250000000000000e+00 0.000000000000000e+00 8.500000000000000e+00
1.250000000000000e+00 0.000000000000000e+00 8.000000000000000e+00
1.250000000000000e+00 3.000000000000000e-01 8.000000000000000e+00
1.250000000000000e+00 3.000000000000000e-01 8.500000000000000e+00
1.500000000000000e+00 0.000000000000000e+00 8.250000000000000e+00
1.500000000000000e+00 1.500000000000000e-01 8.000000000000000e+00
1.500000000000000e+00 3.000000000000000e-01 8.250000000000000e+00
1.500000000000000e+00 1.500000000000000e-01 8.500000000000000e+00
1.500000000000000e+00 0.000000000000000e+00 7.500000000000000e+00
1.500000000000000e+00 3.000000000000000e-01 7.500000000000000e+00
1.250000000000000e+00 0.000000000000000e+00 7.500000000000000e+00
1.250000000000000e+00 3.000000000000000e-01 7.500000000000000e+00
1.500000000000000e+00 0.000000000000000e+00 7.750000000000000e+00
1.500000000000000e+00 1.500000000000000e-01 7.500000000000000e+00
1.500000000000000e+00 3.000000000000000e-01 7.750000000000000e+00
2.000000000000000e+00 0.000000000000000e+00 8.500000000000000e+00
2.000000000000000e+00 0.000000000000000e+00 8.000000000000000e+00
2.000000000000000e+00 3.000000000000000e-01 8.000000000000000e+00
2.000000000000000e+00 3.000000000000000e-01 8.500000000000000e+00
1.750000000000000e+00 0.000000000000000e+00 8.500000000000000e+00
1.750000000000000e+00 0.000000000000000e+00 8.000000000000000e+00
1.750000000000000e+00 3.000000000000000e-01 8.000000000000000e+00
1.750000000000000e+00 3.000000000000000e-01 8.500000000000000e+00
2.000000000000000e+00 0.000000000000000e+00 8.250000000000000e+00
2.000000000000000e+00 1.500000000000000e-01 8.000000000000000e+00
2.000000000000000e+00 3.000000000000000e-01 8.250000000000000e+00
2.000000000000000e+00 1.500000000000000e-01 8.500000000000000e+00
2.000000000000000e+00 0.000000000000000e+00 7.500000000000000e+00
2.000000000000000e+00 3.000000000000000e-01 7.500000000000000e+00
1.750000000000000e+00 0.000000000000000e+00 7.500000000000000e+00
1.750000000000000e+00 3.000000000000000e-01 7.500000000000000e+00
2.000000000000000e+00 0.000000000000000e+00 7.750000000000000e+00
2.000000000000000e+00 1.500000000000000e-01 7.500000000000000e+00
2.000000000000000e+00 3.000000000000000e-01 7.750000000000000e+00
1.000000000000000e+00 0.000000000000000e+00 -7.079632679490000e-02
9.238795325110000e-01 3.826834323650000e-01 3.219027549040000e-01
7.071067811870000e-01 7.071067811870000e-01 7.146018366030000e-01
3.826834323650000e-01 9.238795325110000e-01 1.107300918300000e+00
0.000000000000000e+00 1.000000000000000e+00 1.500000000000000e+00
1.000000000000000e-01 3.000000000000000e-01 2.500000000000000e+00
6.250000000000000e-01 3.000000000000000e-01 2.775000000000000e+00
1.150000000000000e+00 3.000000000000000e-01 3.050000000000000e+00
1.675000000000000e+00 3.000000000000000e-01 3.325000000000000e+00
2.200000000000000e+00 3.000000000000000e-01 3.600000000000000e+00
1.000000000000000e+00 0.000000000000000e+00 4.929203673210000e+00
9.238795325110000e-01 3.826834323650000e-01 5.321902754900000e+00
7.071067811870000e-01 7.071067811870000e-01 5.714601836600000e+00
3.826834323650000e-01 9.238795325110000e-01 6.107300918300000e+00
0.000000000000000e+00 1.000000000000000e+00 6.500000000000000e+00
1.000000000000000e-01 3.000000000000000e-01 7.500000000000000e+00
6.250000000000000e-01 3.000000000000000e-01 7.775000000000000e+00
1.150000000000000e+00 3.000000000000000e-01 8.050000000000001e+00
1.675000000000000e+00 3.000000000000000e-01 8.324999999999999e+00
2.200000000000000e+00 3.000000000000000e-01 8.600000000000000e+00
        </DataArray>
      </Points>

      <Cells>
        <DataArray type="Int32" Name="connectivity" format="ascii">

        </DataArray>
        <DataArray type="Int32" Name="offsets" format="ascii">

        </DataArray>
        <DataArray type="UInt8" Name="types" format="ascii">

        </DataArray>
      </Cells>

  <PointData>
        <DataArray type="Float64" Name="displacement" NumberOfComponents="3" format="ascii">
2.998488427069569e-03 -2.225862743170401e-02 2.473436932790616e-02
-9.636445141665386e-03 -2.085849056905753e-02 1.236646777792322e-02
8.055149794224670e-03 3.583724215641950e-03 1.106553348984277e-02
1.470431713645992e-02 5.365324331226804e-03 2.701432481274183e-02
4.940925038528083e-03 -7.204593903895392e-03 1.375174454156061e-02
-1.185623257939672e-02 -2.496334025103912e-02 -4.695161016927501e-03
5.117642603916916e-03 6.295571753747748e-03 -4.845219667645687e-03
1.285540360433496e-02 7.011522251570718e-03 1.728089895531559e-02
-5.430901418200485e-03 -9.227922387256511e-03 4.110125126898099e-03
2.317954260657948e-03 4.900238649879166e-04 5.363248933430030e-05
8.378991508190293e-04 -1.379572591131266e-02 -5.522690394429547e-03
7.995941375572043e-04 4.107554588873327e-03 -4.790525805401491e-03
0.000000000000000e+00 0.000000000000000e+00 0.000000000000000e+00
0.000000000000000e+00 0.000000000000000e+00 0.000000000000000e+00
0.000000000000000e+00 0.000000000000000e+00 0.000000000000000e+00
0.000000000000000e+00 0.000000000000000e+00 0.000000000000000e+00
2.446059373325119e-02 2.517922069257709e-02 1.190448748928522e-02
3.908990964080290e-02 3.521015670270960e-02 3.077369292866209e-02
1.613534331768546e-02 4.390429064810411e-02 -4.261252298330191e-03
3.804991339908644e-02 4.658538279355131e-02 1.684567720180480e-02
6.464489528859098e-03 5.574407079609622e-03 6.311016532243749e-03
-8.249535490553572e-03 4.828336171928183e-03 -1.034182166808695e-02
0.000000000000000e+00 0.000000000000000e+00 0.000000000000000e+00
0.000000000000000e+00 0.000000000000000e+00 0.000000000000000e+00
3.706122824688866e-02 6.125190976634324e-02 1.287935653075818e-02
5.704553245297771e-02 6.335913091283518e-02 2.867369858181849e-02
2.798237140233544e-02 6.847075276351548e-02 -5.315161862615355e-03
5.665649417925357e-02 8.035224387450712e-02 1.785043926351003e-02
2.588082467608082e-02 4.732661350476683e-02 8.193683185468878e-03
8.769053173271842e-03 6.600039796583922e-02 -1.734149672741722e-02
0.000000000000000e+00 0.000000000000000e+00 0.000000000000000e+00
0.000000000000000e+00 0.000000000000000e+00 0.000000000000000e+00
0.000000000000000e+00 0.000000000000000e+00 0.000000000000000e+00
0.000000000000000e+00 0.000000000000000e+00 0.000000000000000e+00
0.000000000000000e+00 0.000000000000000e+00 0.000000000000000e+00
0.000000000000000e+00 0.000000000000000e+00 0.000000000000000e+00
1.923493785412957e-16 -1.496465064071637e-16 8.087899565872607e-17
-4.261212661117484e-17 1.142842599564407e-18 -2.043651460875304e-16
2.388564539521567e-16 5.826731883404638e-17 6.455438556000860e-16
-5.837607310017915e-17 -5.341321331843231e-17 9.828353099770349e-17
0.000000000000000e+00 0.000000000000000e+00 0.000000000000000e+00
0.000000000000000e+00 0.000000000000000e+00 0.000000000000000e+00
-2.575160714909672e-16 -1.083609002999358e-16 -2.018934072534698e-16
-3.037311292424193e-16 -1.292201248295386e-16 -6.097344044662139e-16
4.255179555822554e-16 7.758313934906610e-16 -2.106832308203239e-16
1.087553593047468e-16 -3.271711858656501e-17 -2.343122757910045e-16
-4.301434186135599e-16 -4.898397117577419e-17 -1.221678907872130e-15
7.109614514842468e-17 7.572510557354320e-16 -4.626746015582397e-16
-4.900715064499333e-16 -6.214763080462961e-16 -5.715838916858098e-16
-4.055783124891399e-17 -3.978558138801168e-16 -5.069225123407604e-16
1.962462292245719e-16 9.045891202777454e-16 -3.558099077396628e-16
1.130381514513728e-16 6.380546555377562e-16 -2.794372668828070e-16
-1.942857074222611e-16 5.988084113451994e-16 -8.637135601361946e-16
4.572489305595831e-16 9.287960925743716e-16 -2.057345089313119e-16
-1.101833123546283e-16 -7.469088133114225e-16 -9.947811161029801e-17
3.295306994946923e-18 -6.862338014091527e-16 -1.254923429904528e-15
5.430748695506375e-16 1.437764226391741e-15 -6.354974306776892e-16
1.005914177431393e-16 5.712145510410520e-16 -6.425509169355476e-16
1.300828167602880e-17 6.513142583354738e-16 -7.612295761013268e-16
1.841706864915024e-16 1.470037671939736e-15 -1.841518105749275e-15
1.354256123443014e-16 9.802726927041291e-17 -7.096708906270095e-16
-2.021839426666467e-16 1.328147366717047e-16 -1.017899195403190e-15
9.076281681477876e-04 3.370735886315738e-04 -5.142608683475514e-04
2.513390070059242e-04 2.728899334868028e-04 -1.436463284221776e-04
1.334289539705193e-04 2.879018466724469e-04 -4.575433788180633e-05
1.789319559172101e-04 2.036944804577252e-04 -2.704888332228238e-04
1.296630300107205e-03 1.212409627363109e-03 -1.920495608871338e-04
2.042073705122557e-04 5.181212338846836e-04 7.487281159887652e-05
-4.498905373805574e-06 2.545785195402261e-04 -5.762092429079874e-06
2.281471687865423e-04 3.161702052263268e-04 -1.639583356205346e-04
5.436640267090800e-04 3.219954478401701e-04 -3.223728141943989e-04
1.281964535352292e-04 2.459551938180670e-04 -1.016481604252124e-04
1.213864051252096e-04 2.122266907853079e-04 -1.635335701752924e-04
4.905921344528553e-04 2.089484751253965e-04 -4.383068955182549e-04
1.057240475963898e-03 6.988776449122878e-04 -3.941101975037640e-04
2.108402072365034e-04 4.099524186221182e-04 -6.013133312911849e-05
7.574517679778126e-05 2.760540143413443e-04 -2.269968752256966e-05
1.902959301895444e-04 2.604359626056844e-04 -2.092877701899618e-04
5.365283886885145e-04 8.349435506393733e-04 7.928073788618572e-05
-4.144457765239276e-06 2.789838549387830e-04 3.331981697198887e-05
8.621574960830146e-05 2.537098663824483e-04 -1.030224436774295e-04
5.261222007731143e-04 5.584544087522584e-04 -1.535178212218536e-04
8.007117197247197e-05 1.484787547195059e-04 -1.169033144034996e-05
1.937292786182748e-04 1.814785313502200e-04 7.714681139590090e-06
-2.588237478581825e-05 2.310280633181298e-04 -4.384949438134306e-06
-1.742186743957544e-05 2.284631973198208e-04 2.113729351890092e-06
1.291399918230603e-04 2.241712142885069e-04 -2.480288733032230e-05
1.159728426267414e-04 1.626336852891735e-04 1.316467295250896e-05
2.068654497890488e-04 2.933843993901916e-04 1.056852533918691e-05
2.654604146497681e-05 1.882142886326753e-04 -3.223668187417470e-06
9.520604018308369e-05 1.967575007078595e-04 4.256918539278679e-06
4.501924848046456e-05 3.168966594646145e-04 -1.029170940082480e-05
-1.367206497901924e-05 2.349050954198074e-04 -1.629896724935215e-05
1.633178184442192e-04 4.340438603367100e-04 9.924733105529074e-06
0.000000000000000e+00 0.000000000000000e+00 0.000000000000000e+00
0.000000000000000e+00 0.000000000000000e+00 0.000000000000000e+00
0.000000000000000e+00 0.000000000000000e+00 0.000000000000000e+00
0.000000000000000e+00 0.000000000000000e+00 0.000000000000000e+00
5.353208776805375e-05 6.226789882738092e-05 8.670639356280746e-06
0.000000000000000e+00 0.000000000000000e+00 0.000000000000000e+00
8.078656015340385e-05 6.220203804981917e-05 -1.454661068148598e-05
0.000000000000000e+00 0.000000000000000e+00 0.000000000000000e+00
0.000000000000000e+00 0.000000000000000e+00 0.000000000000000e+00
-4.900762145487532e-05 9.933232310499936e-05 -2.033781561241137e-06
0.000000000000000e+00 0.000000000000000e+00 0.000000000000000e+00
-5.137452133575647e-05 7.579145940748293e-05 2.686905485923970e-05
1.751506993487026e-04 5.714778556914761e-05 -1.771354847504508e-04
1.614053343741417e-04 4.862888676337962e-05 -3.008083253634990e-04
1.169920734503604e-04 5.395504950511038e-05 3.160067701617975e-05
1.854805681967403e-04 9.668493072266716e-05 -2.727498407699913e-04
2.244048936821589e-04 2.676601534887512e-04 -1.066737186070123e-04
1.599865778384949e-04 6.123147537298370e-05 -2.157092385644178e-04
1.478921160405366e-04 2.056665715776320e-04 -2.476613574156745e-04
1.488432915868694e-04 5.651470927394280e-05 -8.727651319258560e-05
1.783076541090206e-04 6.978129762472221e-05 -2.801967368828603e-04
2.236657753405343e-04 2.948309425331005e-04 -2.784771398167932e-06
1.551530539350155e-04 6.913368560664014e-05 -1.197131933413906e-04
1.403222482666670e-04 1.693207050387439e-04 -2.415358159060933e-04
3.016697738357883e-05 -2.390168448215887e-04 -1.317255235743811e-04
-2.030743950476323e-04 -3.747111772776411e-04 8.243640999767936e-06
1.824508532530026e-04 3.803675318021463e-05 -1.261614017853307e-04
1.473900968443510e-04 -8.630928863636392e-05 -1.808262803345054e-04
-7.884020633479667e-05 -3.055038077804409e-04 -5.761344605833761e-05
2.200259108380981e-05 1.394070121256908e-04 6.096566399036453e-05
5.169381694294529e-05 4.574167892168509e-05 1.199383909769925e-04
0.000000000000000e+00 0.000000000000000e+00 0.000000000000000e+00
0.000000000000000e+00 0.000000000000000e+00 0.000000000000000e+00
0.000000000000000e+00 0.000000000000000e+00 0.000000000000000e+00
-6.372231155974824e-05 -2.037425668307463e-04 -9.501261515964388e-05
0.000000000000000e+00 0.000000000000000e+00 0.000000000000000e+00
0.000000000000000e+00 0.000000000000000e+00 0.000000000000000e+00
-9.456950698952967e-05 -3.106957496434986e-04 1.520028171095351e-05
-1.436323120309128e-05 -3.349853526633362e-04 -1.430158777839107e-04
9.628675953103309e-05 -3.026145646148787e-04 -3.341393701773446e-04
-6.791809630298041e-05 -2.432755348534690e-04 1.591287654111824e-05
9.193839238749213e-05 -2.219427673374239e-04 -2.655561893025056e-04
6.529522728923008e-05 -1.782728598774592e-04 -1.587361932258755e-04
4.732967679216960e-05 -3.043914230000111e-04 -2.259541386309496e-04
1.495768634924957e-04 -1.300203504351497e-04 -3.330871677034663e-04
-4.343957402566237e-05 -2.917122613440757e-04 -6.723285340009295e-05
9.417329368654028e-05 -2.588189884607503e-04 -3.001131098221054e-04
1.632054861445432e-05 -9.608595241063645e-05 2.736751159386717e-05
1.700778281103390e-05 -2.127950305935113e-04 -1.018341920770019e-04
1.535601865802837e-04 -5.351804635776370e-05 -2.623602649146568e-04
-1.074673275426508e-04 -2.869198912778638e-04 -7.391869960762925e-06
-2.678255536539929e-05 -2.313828936026480e-04 -6.116782346516669e-05
-8.651472115634297e-05 -3.235580740553901e-04 -2.308987505175926e-05
-8.379839610364907e-05 -3.487628052501095e-04 -9.349004455894157e-05
-7.035028746951292e-05 -2.725574703204966e-04 -4.112679676217110e-06
-1.771131418767912e-04 -3.955148828050675e-04 -3.625242464887974e-05
-1.343889667095543e-04 -2.966431165710151e-04 4.183764363832336e-05
0.000000000000000e+00 0.000000000000000e+00 0.000000000000000e+00
0.000000000000000e+00 0.000000000000000e+00 0.000000000000000e+00
0.000000000000000e+00 0.000000000000000e+00 0.000000000000000e+00
-9.096047279227595e-05 -1.637434892628600e-04 3.420921670784907e-05
0.000000000000000e+00 0.000000000000000e+00 0.000000000000000e+00
0.000000000000000e+00 0.000000000000000e+00 0.000000000000000e+00
4.433501607778327e-05 -1.669225631309586e-04 1.715188972319133e-05