<?xml version="1.0" ?> 
<!-- 
# vtk DataFile Version 3.0
-->
<VTKFile type="UnstructuredGrid" version="0.1" compressor="vtkZLibDataCompressor" byte_order="LittleEndian">
  <UnstructuredGrid>
    <FieldData>
      <DataArray type="Float64" Name="TIME" NumberOfTuples="1" format="ascii">
3.000000000000000e+00 
      </DataArray>
    </FieldData>

    <Piece NumberOfPoints="168" NumberOfCells="0" >
      <Points>
        <DataArray type="Float64" NumberOfComponents="3" format="ascii">
1.110928649961031e-01 2.999999999999999e-01 1.750581054833129e+01
1.556512883556357e-01 3.000000000000000e-01 1.752915067485292e+01
2.250678783032799e-01 3.000000000000000e-01 1.756551174577786e+01
3.034612257068003e-01 3.000000000000000e-01 1.760657492775112e+01
3.728778156544343e-01 3.000000000000000e-01 1.764293599867607e+01
4.174362390139556e-01 3.000000000000000e-01 1.766627612519774e+01
1.056881606999286e+00 3.000000000000000e-01 1.800122369890443e+01
1.069952606047073e+00 2.999999999999999e-01 1.800807041269136e+01
1.090315628629474e+00 3.000000000000000e-01 1.801873675785356e+01
1.113311939809438e+00 3.000000000000000e-01 1.803078244466210e+01
1.133674962391840e+00 3.000000000000000e-01 1.804144878982430e+01
1.146745961439628e+00 3.000000000000000e-01 1.804829550361124e+01
8.236074390775003e-01 3.000000000000000e-01 1.787903246808827e+01
8.558952910793249e-01 3.000000000000000e-01 1.789594515247018e+01
9.061958271781099e-01 3.000000000000000e-01 1.792229305233145e+01
9.630010866117689e-01 3.000000000000000e-01 1.795204818822527e+01
1.013301622710558e+00 3.000000000000000e-01 1.797839608808654e+01
1.045589474712388e+00 3.000000000000000e-01 1.799530877246844e+01
4.358615880568089e-01 3.000000000000000e-01 1.767592749850590e+01
4.653151087250092e-01 3.000000000000000e-01 1.769135553314163e+01
5.112001022366039e-01 3.000000000000000e-01 1.771539052974295e+01
5.630188135803326e-01 3.000000000000000e-01 1.774253366425635e+01
6.089038070919262e-01 3.000000000000000e-01 1.776656866085767e+01
6.383573277601254e-01 3.000000000000000e-01 1.778199669549340e+01
6.514258355204646e-01 3.000000000000000e-01 1.778884210432025e+01
6.744666075049905e-01 3.000000000000000e-01 1.780091108012168e+01
7.103613205656795e-01 3.000000000000000e-01 1.781971307267729e+01
7.508978365921631e-01 3.000000000000000e-01 1.784094648583403e+01
7.867925496528527e-01 3.000000000000000e-01 1.785974847838963e+01
8.098333216373796e-01 2.999999999999999e-01 1.787181745419106e+01
1.151852016692724e+00 2.999999999999999e-01 1.805097010398190e+01
1.159291298058927e+00 3.000000000000000e-01 1.805486687041182e+01
1.170880791249384e+00 2.999999999999999e-01 1.806093755732109e+01
1.183969004983243e+00 3.000000000000000e-01 1.806779328832454e+01
1.195558498173701e+00 3.000000000000000e-01 1.807386397523382e+01
1.202997779539904e+00 3.000000000000000e-01 1.807776074166373e+01
1.208494783988945e+00 3.000000000000000e-01 1.808064012494656e+01
1.223136169027294e+00 3.000000000000000e-01 1.808830942187140e+01
1.245945661483343e+00 3.000000000000000e-01 1.810025725125314e+01
1.271704813114872e+00 3.000000000000000e-01 1.811375014020298e+01
1.294514305570920e+00 3.000000000000000e-01 1.812569796958471e+01
1.309155690609267e+00 3.000000000000000e-01 1.813336726650956e+01
1.996113988465754e+00 3.000000000000000e-01 1.849320256538688e+01
1.996659466662134e+00 3.000000000000000e-01 1.849348829206118e+01
1.997509255174128e+00 3.000000000000000e-01 1.849393341937699e+01
1.998468935937624e+00 3.000000000000000e-01 1.849443610930072e+01
1.999318724449618e+00 3.000000000000000e-01 1.849488123661653e+01
1.999864202645997e+00 3.000000000000000e-01 1.849516696329082e+01
1.322187210707726e+00 3.000000000000000e-01 1.814019330084685e+01
1.359891544270426e+00 3.000000000000000e-01 1.815994318985588e+01
1.418630298131908e+00 2.999999999999999e-01 1.819071110854523e+01
1.484964981829079e+00 3.000000000000000e-01 1.822545784762471e+01
1.543703735690557e+00 3.000000000000000e-01 1.825622576631407e+01
1.581408069253253e+00 3.000000000000000e-01 1.827597565532311e+01
1.604475723913868e+00 3.000000000000000e-01 1.828805871252629e+01
1.659430800038415e+00 3.000000000000000e-01 1.831684470478202e+01
1.745044107181236e+00 3.000000000000000e-01 1.836168977042829e+01
1.841728685525896e+00 3.000000000000000e-01 1.841233407337075e+01
1.927341992668722e+00 3.000000000000000e-01 1.845717913901701e+01
1.982297068793275e+00 3.000000000000000e-01 1.848596513127273e+01
7.275874203475653e-01 6.859859203550280e-01 2.068517439284198e+01
7.247521970757825e-01 6.889880282833269e-01 2.068930521383530e+01
7.203093922049884e-01 6.936408193855819e-01 2.069574046515747e+01
7.152542760527555e-01 6.988596899618666e-01 2.070300780968607e+01
7.107446751006581e-01 7.034491521847014e-01 2.070944289066832e+01
7.078335139314260e-01 7.063792639441053e-01 2.071357351800874e+01
8.051344864062868e-01 5.924528854948170e-01 2.056350920998211e+01
7.950429140086187e-01 6.060350932899198e-01 2.058044425117396e+01
7.788637382033068e-01 6.268447800368557e-01 2.060682621530682e+01
7.599296529396442e-01 6.498146584201980e-01 2.063661859596223e+01
7.425846333596249e-01 6.696655617636275e-01 2.066299828701126e+01
7.311676579850401e-01 6.821577655592278e-01 2.067993074402145e+01
9.964422083599686e-01 8.262713075546312e-02 2.001197115011487e+01
9.911596711457210e-01 1.303805179141828e-01 2.006005976246379e+01
9.783411120676044e-01 2.041216084691319e-01 2.013498191745851e+01
9.573208221840576e-01 2.860155654339628e-01 2.021959913512233e+01
9.330896710673362e-01 3.568802465635577e-01 2.029453013091727e+01
9.148325966205227e-01 4.013635544047023e-01 2.034262879403214e+01
9.070973783333833e-01 4.185878706146943e-01 2.036151476346000e+01
8.951538093107047e-01 4.436421858100994e-01 2.038927823893285e+01
8.752073616043790e-01 4.819995225137057e-01 2.043252977846891e+01
8.507532439181951e-01 5.242475493044920e-01 2.048137319118123e+01
8.274259078302935e-01 5.606285856118349e-01 2.052462197989555e+01
8.116387367549409e-01 5.834361208481107e-01 2.055238232806492e+01
2.444248131954816e-01 9.689055715931895e-01 2.125280115852591e+01
2.106826146971889e-01 9.769234319013161e-01 2.128750489739543e+01
1.576311936955080e-01 9.870851920359309e-01 2.134156679999463e+01
9.716911780767161e-02 9.950834909998918e-01 2.140261558280393e+01
4.330369828648812e-02 9.990201373063295e-01 2.145666905688858e+01
8.636096158343872e-03 9.999609049726239e-01 2.149136321370385e+01
5.796773631993898e-01 8.143053179929870e-01 2.088143355289678e+01
5.631666742179472e-01 8.257149188351954e-01 2.090151852685891e+01
5.369969542904285e-01 8.428277362301818e-01 2.093280929766036e+01
5.068178957391948e-01 8.611711822278739e-01 2.096814754506747e+01
4.795721537676573e-01 8.765313903015415e-01 2.099943998801517e+01
4.618381766825168e-01 8.859485169699015e-01 2.101952686297611e+01
7.032325882786338e-01 7.109588405831683e-01 2.072006538381141e+01
6.874533216785288e-01 7.262046387190589e-01 2.074201224499035e+01
6.621961893408240e-01 7.492228482251930e-01 2.077620455240032e+01
6.327249561949778e-01 7.741275279645813e-01 2.081482088338034e+01
6.058296766312506e-01 7.951982317333764e-01 2.084901716239387e+01
5.881880634139566e-01 8.082299854511132e-01 2.087096853873625e+01
4.507841808802269e-01 8.915949531381611e-01 2.103194350554467e+01
4.239902197625687e-01 9.045922102244642e-01 2.106173254851522e+01
3.815248121325067e-01 9.232761336832360e-01 2.110814060675241e+01
3.326094437785773e-01 9.420432896251481e-01 2.116054998646939e+01
2.885480536170670e-01 9.565536446051716e-01 2.120695741053061e+01
2.599396813028323e-01 9.648061321038991e-01 2.123674573253087e+01
6.514258354880734e-01 3.000000000000000e-01 2.278884210430328e+01
6.744666074792003e-01 3.000000000000000e-01 2.280091108010817e+01
7.103613205501732e-01 3.000000000000000e-01 2.281971307266916e+01
7.508978365882703e-01 3.000000000000000e-01 2.284094648583199e+01
7.867925496592438e-01 3.000000000000000e-01 2.285974847839298e+01
8.098333216503718e-01 3.000000000000000e-01 2.287181745419786e+01
4.358615880411376e-01 3.000000000000000e-01 2.267592749849769e+01
4.653151087067601e-01 3.000000000000000e-01 2.269135553313207e+01
5.112001022143385e-01 2.999999999999999e-01 2.271539052973128e+01
5.630188135535317e-01 2.999999999999999e-01 2.274253366424231e+01
6.089038070611090e-01 3.000000000000000e-01 2.276656866084153e+01
6.383573277267303e-01 3.000000000000000e-01 2.278199669547591e+01
1.110928649955955e-01 3.000000000000000e-01 2.250581054833102e+01
1.556512883530894e-01 3.000000000000000e-01 2.252915067485159e+01
2.250678782975574e-01 2.999999999999999e-01 2.256551174577486e+01
3.034612256974909e-01 3.000000000000000e-01 2.260657492774624e+01
3.728778156419488e-01 3.000000000000000e-01 2.264293599866953e+01
4.174362389994312e-01 3.000000000000000e-01 2.266627612519013e+01
1.056881606999290e+00 3.000000000000000e-01 2.300122369890443e+01
1.069952606047076e+00 3.000000000000000e-01 2.300807041269136e+01
1.090315628629476e+00 3.000000000000000e-01 2.301873675785357e+01
1.113311939809440e+00 2.999999999999999e-01 2.303078244466211e+01
1.133674962391841e+00 2.999999999999999e-01 2.304144878982430e+01
1.146745961439628e+00 3.000000000000000e-01 2.304829550361124e+01
8.236074390916391e-01 3.000000000000000e-01 2.287903246809567e+01
8.558952910914798e-01 3.000000000000000e-01 2.289594515247655e+01
9.061958271871740e-01 2.999999999999999e-01 2.292229305233620e+01
9.630010866173423e-01 3.000000000000000e-01 2.295204818822819e+01
1.013301622713041e+00 3.000000000000000e-01 2.297839608808784e+01
1.045589474712887e+00 3.000000000000000e-01 2.299530877246870e+01
1.322187210729730e+00 3.000000000000000e-01 2.314019330085837e+01
1.359891544291127e+00 3.000000000000000e-01 2.315994318986672e+01
1.418630298150579e+00 3.000000000000000e-01 2.319071110855500e+01
1.484964981845457e+00 3.000000000000000e-01 2.322545784763328e+01
1.543703735704904e+00 3.000000000000000e-01 2.325622576632158e+01
1.581408069266297e+00 3.000000000000000e-01 2.327597565532994e+01
1.604475723926065e+00 3.000000000000000e-01 2.328805871253268e+01
1.659430800048525e+00 3.000000000000000e-01 2.331684470478732e+01
1.745044107188094e+00 2.999999999999999e-01 2.336168977043188e+01
1.841728685529082e+00 3.000000000000000e-01 2.341233407337242e+01
1.927341992668656e+00 3.000000000000000e-01 2.345717913901698e+01
1.982297068791122e+00 3.000000000000000e-01 2.348596513127160e+01
1.996113988463165e+00 3.000000000000000e-01 2.349320256538553e+01
1.996659466659908e+00 3.000000000000000e-01 2.349348829206001e+01
1.997509255172468e+00 3.000000000000000e-01 2.349393341937612e+01
1.998468935936604e+00 3.000000000000000e-01 2.349443610930019e+01
1.999318724449163e+00 2.999999999999999e-01 2.349488123661629e+01
1.999864202645907e+00 3.000000000000000e-01 2.349516696329078e+01
1.151852016692304e+00 3.000000000000000e-01 2.305097010398169e+01
1.159291298056823e+00 3.000000000000000e-01 2.305486687041071e+01
1.170880791244657e+00 3.000000000000000e-01 2.306093755731862e+01
1.183969004975552e+00 3.000000000000000e-01 2.306779328832051e+01
1.195558498163385e+00 3.000000000000000e-01 2.307386397522842e+01
1.202997779527903e+00 3.000000000000000e-01 2.307776074165745e+01
1.208494783977698e+00 3.000000000000000e-01 2.308064012494067e+01
1.223136169020759e+00 3.000000000000000e-01 2.308830942186798e+01
1.245945661484151e+00 3.000000000000000e-01 2.310025725125356e+01
1.271704813123974e+00 3.000000000000000e-01 2.311375014020775e+01
1.294514305587364e+00 3.000000000000000e-01 2.312569796959333e+01
1.309155690630425e+00 3.000000000000000e-01 2.313336726652064e+01
        </DataArray>
      </Points>

      <Cells>
        <DataArray type="Int32" Name="connectivity" format="ascii">

        </DataArray>
        <DataArray type="Int32" Name="offsets" format="ascii">

        </DataArray>
        <DataArray type="UInt8" Name="types" format="ascii">

        </DataArray>
      </Cells>

  <PointData>
        <DataArray type="Float64" Name="displacement" NumberOfComponents="3" format="ascii">
-1.642678250607238e-04 1.073774829815632e-04 -2.166712206985721e-05
-8.660811490907305e-04 9.213662900611208e-04 -3.045953450708794e-05
-2.096265336116121e-03 3.394414097872833e-03 1.886874090573087e-04
-3.692542490674300e-03 7.916010597726786e-03 7.393693099970733e-04
-5.295925909883092e-03 1.341463499739048e-02 1.457651775574220e-03
-6.422015096640032e-03 1.766828554022448e-02 2.016307353262192e-03
-3.190014333650804e-02 1.357511061693329e-01 1.284691784102421e-02
-3.262022571855860e-02 1.391811336017758e-01 1.302229292807766e-02
-3.375928798809835e-02 1.445984232686879e-01 1.328405985056591e-02
-3.507109793674212e-02 1.508233285837279e-01 1.356195944482508e-02
-3.625539336841510e-02 1.564293234721646e-01 1.379139297067766e-02
-3.702689959390648e-02 1.600738826178562e-01 1.393000946187684e-02
-2.046074958486321e-02 8.100688667968758e-02 9.010975903926521e-03
-2.188878375919834e-02 8.783100720089265e-02 9.598079474759658e-03
-2.421105909724941e-02 9.895437454530970e-02 1.048738252854164e-02
-2.697905339653106e-02 1.122233788871917e-01 1.144019609262514e-02
-2.956135253718484e-02 1.245854805693982e-01 1.222391946171086e-02
-3.128499777838512e-02 1.328178705470546e-01 1.269099354707848e-02
-6.910256305806106e-03 1.959019270561185e-02 2.267010379718215e-03
-7.718564532198380e-03 2.285836784010425e-02 2.689486350675452e-03
-9.047011268928928e-03 2.842488051136183e-02 3.395393707009475e-03
-1.065050225298725e-02 3.539665143111387e-02 4.251584038843959e-03
-1.216371194543764e-02 4.216662198598098e-02 5.051051544935348e-03
-1.318207007461114e-02 4.680296213205853e-02 5.579892454044000e-03
-1.364583804355257e-02 4.893211087054827e-02 5.817627893872412e-03
-1.448150864346875e-02 5.279288989050224e-02 6.240472920808315e-03
-1.582963175188523e-02 5.907693671043701e-02 6.906035713495129e-03
-1.742073821278989e-02 6.656323193363367e-02 7.662428974136049e-03
-1.889134660462033e-02 7.353230025172491e-02 8.331195971496896e-03
-1.986626601538755e-02 7.817185388334247e-02 8.757683735574062e-03
-3.733049470850625e-02 1.615070479515217e-01 1.398225714869739e-02
-3.777077554816333e-02 1.635986946414008e-01 1.405638339546655e-02
-3.844999250140368e-02 1.668632106534485e-01 1.416707986559373e-02
-3.920775118115127e-02 1.705594722275662e-01 1.428500761868179e-02
-3.987101164738904e-02 1.738417889132625e-01 1.438308067306693e-02
-4.029315217027873e-02 1.759536725048233e-01 1.444285584368643e-02
-4.060335157287498e-02 1.775168111756505e-01 1.448541517829582e-02
-4.142280574993484e-02 1.816918286951171e-01 1.459203778918905e-02
-4.268157750798274e-02 1.882324082132239e-01 1.473835318732597e-02
-4.408082261288082e-02 1.956783854033471e-01 1.487400895354440e-02
-4.530390534840789e-02 2.023307558004400e-01 1.496734003305278e-02
-4.608278604751304e-02 2.066328640734141e-01 1.501372680860413e-02
-9.401841875868455e-02 4.642194619398739e-01 2.666661167790352e-03
-9.407805639698963e-02 4.644882150959885e-01 2.643567027124760e-03
-9.417107217410936e-02 4.649071673947214e-01 2.607540987746404e-03
-9.427627428735286e-02 4.653806897443003e-01 2.566785562326146e-03
-9.436956971993160e-02 4.658003371622731e-01 2.530634460164549e-03
-9.442952528777937e-02 4.660698805727336e-01 2.507398140437544e-03
-4.677281809522227e-02 2.104844028184027e-01 1.504598249932343e-02
-4.875831831007393e-02 2.217571764877982e-01 1.509045887650373e-02
-5.184890063281888e-02 2.397500389871756e-01 1.501040167412526e-02
-5.540055483770745e-02 2.608082224373418e-01 1.469106122429054e-02
-5.866507368791374e-02 2.802159382283282e-01 1.419537025935114e-02
-6.084831565538606e-02 2.930972042234381e-01 1.376732858722463e-02
-6.222594850783669e-02 3.011545350349942e-01 1.346183302100812e-02
-6.566010357535523e-02 3.209290662834482e-01 1.259687892681782e-02
-7.153223219293614e-02 3.535169583549883e-01 1.084954139501093e-02
-7.913028686082790e-02 3.932593723919680e-01 8.259051216679580e-03
-8.691601442781560e-02 4.313856333112584e-01 5.387088961711584e-03
-9.252566658953509e-02 4.574565232291321e-01 3.243592246001015e-03
2.214008419004543e-02 1.297587696120707e-01 -5.452036424241413e-03
2.136855879427879e-02 1.285063244400187e-01 -5.484958873061885e-03
2.018187555027051e-02 1.265568209685634e-01 -5.535905986985057e-03
1.886361023322036e-02 1.243576266545101e-01 -5.593124974975439e-03
1.771519806917099e-02 1.224123893035738e-01 -5.643696111455654e-03
1.698718159321644e-02 1.211647941199669e-01 -5.676191125967733e-03
4.883282679160572e-02 1.670244619959894e-01 -4.195328776496865e-03
4.460619280083966e-02 1.617926573077199e-01 -4.423563920084916e-03
3.837491843970098e-02 1.536715751435835e-01 -4.735473230997655e-03
3.182278557102824e-02 1.445428481654176e-01 -5.036489827844548e-03
2.641786680695712e-02 1.364965684523668e-01 -5.270379517849477e-03
2.313068473256763e-02 1.313498037956178e-01 -5.409917153187394e-03
3.328859470082942e-01 3.463144523623475e-01 3.456978909727582e-02
2.934645576594924e-01 3.299342889437978e-01 2.746183702212690e-02
2.386767527219606e-01 3.047177257431811e-01 1.821751885416845e-02
1.857640632948995e-01 2.766694529078020e-01 1.016550797493210e-02
1.461005410639531e-01 2.522003555013359e-01 4.858940017957281e-03
1.238733674050377e-01 2.366699572144467e-01 2.227664805722895e-03
1.157893063172588e-01 2.306087995297070e-01 1.341541412767100e-03
1.045314165626898e-01 2.217356954232343e-01 1.766955593467401e-04
8.840484197527043e-02 2.079994461105554e-01 -1.339809615608090e-03
7.211748270901286e-02 1.926117902332034e-01 -2.671671739438608e-03
5.925636887659891e-02 1.790943438837546e-01 -3.569821096224501e-03
5.171085594264924e-02 1.704699884562343e-01 -4.031681987207492e-03
-7.871995051491165e-03 1.255735811030523e-02 -4.995893710812993e-05
-6.738656120346853e-03 9.357214695147942e-03 3.071520081512347e-04
-4.855095501628048e-03 5.302635535671785e-03 6.813397995664161e-04
-2.744082964183839e-03 2.093255042045383e-03 7.739249070404242e-04
-1.077943823525968e-03 4.703048856498082e-04 5.004850443519615e-04
-1.917830139441298e-04 3.458702163283700e-05 1.213330019815828e-04
-3.848621995509727e-03 7.563883488651135e-02 -5.428854964414143e-03
-5.310396164390330e-03 7.089363333086651e-02 -5.228539529582577e-03
-7.211901215839700e-03 6.380193451030636e-02 -4.864938906102623e-03
-8.845597500132918e-03 5.623482836393701e-02 -4.391102328572316e-03
-9.873957253379528e-03 4.992652792750862e-02 -3.927804414399105e-03
-1.034308609307893e-02 4.607194188396302e-02 -3.614146961751885e-03
1.586108530772412e-02 1.192104454111921e-01 -5.725368311402690e-03
1.226023424431855e-02 1.127178782168236e-01 -5.851589556385761e-03
7.263920131975521e-03 1.029570929523221e-01 -5.931603684146580e-03
2.472009189471214e-03 9.245387350403367e-02 -5.867167199269829e-03
-1.065873469665024e-03 8.361522558623968e-02 -5.689040796919898e-03
-3.008689870412362e-03 7.817100089793128e-02 -5.521791995164449e-03
-1.056301274774779e-02 4.376554883260997e-02 -3.415446431919378e-03
-1.088642856542565e-02 3.847039299279120e-02 -2.928443045551177e-03
-1.087211291183010e-02 3.089276274435393e-02 -2.159591166467578e-03
-1.021650827493692e-02 2.332272209045139e-02 -1.316413834373975e-03
-9.189190690318871e-03 1.749788545876396e-02 -6.319910600431911e-04
-8.360963548513511e-03 1.419541331118579e-02 -2.409718777300895e-04
-5.353328164425319e-02 1.277835396433996e-01 1.970954729604202e-02
-5.727763413728770e-02 1.376117611156833e-01 2.117177518231017e-02
-6.330658528698940e-02 1.534530605791658e-01 2.347065726808495e-02
-7.039101279785243e-02 1.720746139295954e-01 2.607807382689131e-02
-7.689765729155673e-02 1.891670388211031e-01 2.837750660482641e-02
-8.118508098669419e-02 2.004176167040613e-01 2.984036055185868e-02
-2.375490105007771e-02 5.077045811492265e-02 7.425203200440933e-03
-2.722366529307696e-02 5.953482831722534e-02 8.882827312589825e-03
-3.302293469325057e-02 7.436780335203008e-02 1.132337122247762e-02
-4.012862522009009e-02 9.275249833463850e-02 1.428765028131096e-02
-4.689085251001357e-02 1.103850959717740e-01 1.705632370943633e-02
-5.145436656547331e-02 1.223322495039462e-01 1.888698565882763e-02
-2.759562065702270e-04 4.796391788147725e-05 -1.050032282989832e-04
-1.758866288394056e-03 1.462615766511910e-03 -2.420281357053966e-04
-5.229052678665802e-03 7.421758241521415e-03 3.908394225717871e-04
-1.076879753696469e-02 1.932803534093896e-02 2.204941620465917e-03
-1.703131745529096e-02 3.413135512981585e-02 4.644704424116242e-03
-2.168872419860374e-02 4.560061223043715e-02 6.561869271067167e-03
-1.318858336100404e-01 3.317949964418359e-01 4.359583344469087e-02
-1.347756392645877e-01 3.391539141303413e-01 4.416477360601334e-02
-1.393124232829657e-01 3.506721889430691e-01 4.500730210973458e-02
-1.444849154130924e-01 3.637508671073663e-01 4.589108284373111e-02
-1.491065490927457e-01 3.753865294619669e-01 4.661017700677661e-02
-1.520928170659016e-01 3.828789005349025e-01 4.703878941052508e-02
-8.378825789017585e-02 2.072422086589137e-01 3.070764837560347e-02
-9.000433602498203e-02 2.235146498121549e-01 3.271299446688758e-02
-9.999258406300260e-02 2.495750412875629e-01 3.573465379550456e-02
-1.116885248494105e-01 2.799221728248222e-01 3.894374296897496e-02
-1.223838656572072e-01 3.074829726858218e-01 4.155201259029795e-02
-1.294038103840470e-01 3.254611704627170e-01 4.308739181248100e-02
-1.943305118349181e-01 4.888878097351068e-01 5.024260735989117e-02
-2.039627173758287e-01 5.130600222217054e-01 5.031391709433564e-02
-2.193699408173453e-01 5.516587843427816e-01 4.999122838888326e-02
-2.373665033772709e-01 5.965941029167225e-01 4.899264965001748e-02
-2.538398717119574e-01 6.375412923591435e-01 4.754801449159629e-02
-2.646841364034063e-01 6.643833416028695e-01 4.634382642698043e-02
-2.714239179210798e-01 6.810163888459344e-01 4.550049949341783e-02
-2.878055257414753e-01 7.212749476523397e-01 4.316577766983443e-02
-3.142517721365021e-01 7.857202217545151e-01 3.861628249668314e-02
-3.455016223047933e-01 8.609249261088592e-01 3.214588989265366e-02
-3.744261842911802e-01 9.295615397751813e-01 2.523997067379113e-02
-3.936252938504783e-01 9.745850714330999e-01 2.022632092452170e-02
-3.985311503815481e-01 9.860201197857179e-01 1.889446683014739e-02
-3.987254818215467e-01 9.864724998338208e-01 1.884129906503773e-02
-3.990283254734168e-01 9.871773939540276e-01 1.875838127221385e-02
-3.993704769812494e-01 9.879736496439273e-01 1.866461059023550e-02
-3.996735773992550e-01 9.886789096389185e-01 1.858146222923196e-02
-3.998682007468035e-01 9.891317056360005e-01 1.852803234002565e-02
-1.532635011180469e-01 3.858106529803478e-01 4.719900168112190e-02
-1.549749845729103e-01 3.900969771493969e-01 4.742520072715450e-02
-1.576559839499325e-01 3.968145981376660e-01 4.776058911356884e-02
-1.607053056684753e-01 4.044593211581657e-01 4.811445692539706e-02
-1.634246683098142e-01 4.112801057299210e-01 4.840577070319085e-02
-1.651797654853426e-01 4.156837126118244e-01 4.858186302071843e-02
-1.664814397171315e-01 4.189503010132967e-01 4.870650565558066e-02
-1.699684526136793e-01 4.277033524919887e-01 4.901580002427508e-02
-1.754589136002980e-01 4.414905095402618e-01 4.943192642806338e-02
-1.817450340540654e-01 4.572797172376257e-01 4.980568555327025e-02
-1.873877046262293e-01 4.714529855505812e-01 5.005154650110555e-02
-1.910477587502331e-01 4.806449920854599e-01 5.016727261727993e-02
        </DataArray>
        <DataArray type="Float64" Name="projection_direction" NumberOfComponents="3" format="ascii">
-9.367606150879337e-04 2.489350154448788e-03 4.159254839350979e-04
-8.386805735095260e-04 2.957371253406282e-03 5.192891026553070e-04
-5.490392187009474e-04 2.481538545378026e-03 4.474725660585932e-04
-1.493324036272448e-05 2.154313640714833e-04 6.317342442230256e-05
6.479073466292284e-04 -3.285977935808759e-03 -5.077786341871615e-04
1.170263250934500e-03 -6.257618572605594e-03 -9.718630055921551e-04
-4.283484428946327e-04 2.313489696893989e-03 -2.934001078500614e-04
-3.962104586054949e-04 1.858148072233279e-03 -2.802099877499131e-04
-3.288816698689967e-04 1.075056147815945e-03 -2.482153119593988e-04
-2.273987503687014e-04 8.362994545002556e-05 -1.943648873066195e-04
-1.148367994991961e-04 -8.881672004915075e-04 -1.300368148804409e-04
-3.127497176991234e-05 -1.558040538401140e-03 -8.008809892956492e-05
-1.002937737719645e-04 1.289245590098409e-03 8.467011594568419e-04
-3.000122336973554e-04 2.189375553291184e-03 6.314224371486432e-04
-5.135770046412746e-04 3.099448535117122e-03 3.213771554477773e-04
-6.093504988246012e-04 3.420015053259451e-03 2.272934334257570e-05
-5.628914671657048e-04 3.091353697295685e-03 -1.817362536655764e-04
-4.669988602259423e-04 2.583214204037787e-03 -2.769854905046998e-04
1.231812829783741e-03 -6.626254291348221e-03 -1.043346512382470e-03
9.298961939733785e-04 -4.937174116247056e-03 -8.404949768490155e-04
5.287479810046625e-04 -2.780887524270637e-03 -5.722183332075303e-04
1.789776789434816e-04 -1.031168580763409e-03 -3.282459402065285e-04
-3.740757830539287e-05 -7.833987239685980e-05 -1.535294463259618e-04
-1.292743113345818e-04 2.425752911191514e-04 -5.704284894036959e-05
-1.636706599863480e-04 4.311858570708593e-04 -1.117820129792335e-06
-2.188287195448169e-04 9.232531441114022e-04 1.303009864876969e-04
-2.585080310967269e-04 1.420410065603506e-03 3.282136571449712e-04
-2.346706814825295e-04 1.592244709009816e-03 5.469580692682996e-04
-1.518647096206971e-04 1.404380132345451e-03 7.416665352550922e-04
-6.777395832791022e-05 1.117672807722347e-03 8.694426047313186e-04
3.581533547958315e-06 -1.829174565997127e-03 -5.867467056219766e-05
5.232291087731156e-05 -2.227796520793690e-03 -2.548015120140690e-05
1.215691278244613e-04 -2.854786450328939e-03 3.101604513844336e-05
1.904773775469604e-04 -3.572444514417128e-03 1.019018421786200e-04
2.437671074912995e-04 -4.217235117600859e-03 1.710214542605115e-04
2.743681680530408e-04 -4.636093974079492e-03 2.185670497674153e-04
3.026830203476383e-04 -4.612935091221515e-03 2.092234653083835e-04
3.813874688636254e-04 -4.109051067378300e-03 1.287029197918343e-04
4.861614800608649e-04 -3.360472546461934e-03 2.305135651070600e-05
5.821771071061743e-04 -2.574678356524973e-03 -6.668204251170096e-05
6.512620957821458e-04 -1.937890714594825e-03 -1.193492871571777e-04
6.893930663443015e-04 -1.561097444260140e-03 -1.396339973318561e-04
2.363779250234010e-03 -6.409283405614197e-03 9.906539939805725e-04
2.387568827138420e-03 -6.477957059951023e-03 9.994468460838846e-04
2.424737696063550e-03 -6.585209893471000e-03 1.013193221851338e-03
2.466870936594256e-03 -6.706724682893350e-03 1.028787840446910e-03
2.504319460977955e-03 -6.814672635653274e-03 1.042659278997604e-03
2.528426967425279e-03 -6.884136544336950e-03 1.051594310162329e-03
6.717913572258372e-04 -1.282019006498603e-03 -1.797570487980238e-04
5.555795442311329e-04 -6.416064916603403e-04 -2.819375338454222e-04
3.719508194288679e-04 -7.517766135489712e-05 -2.917762948442260e-04
2.259822468746453e-04 -1.740346181212660e-04 -7.395690059652793e-05
2.162900495339404e-04 -1.022459079425220e-03 3.318381009655980e-04
2.978199891598976e-04 -1.990538890302096e-03 7.021756652214606e-04
1.199586127487162e-04 -1.555108020385831e-03 6.288348135186084e-04
-5.923681000032932e-04 8.713615155402366e-04 2.976229047746415e-05
-1.179952456195510e-03 2.869921380188600e-03 -5.036751176241694e-04
-8.769626087166138e-04 2.186581609662452e-03 -4.889032560342343e-04
4.490519844979612e-04 -1.353227373439791e-03 1.022840590181318e-04
1.912222365946681e-03 -5.223116506931302e-03 7.817541575043663e-04
-9.320188884665015e-06 6.530779856610547e-04 4.139632383299841e-04
6.605928464309407e-05 6.286543780755771e-04 4.382852865703057e-04
1.845080682636446e-04 6.006149831803143e-04 4.765837535529727e-04
3.202449282603270e-04 5.837287679356651e-04 5.206214608364235e-04
4.426672677289023e-04 5.819835771999626e-04 5.605023945669529e-04
5.225659867086341e-04 5.874539385184452e-04 5.866234281732829e-04
-2.782608388742891e-03 -1.993969545245000e-03 -1.229391191220230e-03
-2.349740046506010e-03 -1.635206110759624e-03 -9.840541559427152e-04
-1.735478509249488e-03 -1.078193012940210e-03 -6.208610152569349e-04
-1.087877794153647e-03 -4.376903818993361e-04 -2.261514879222659e-04
-5.140050822581843e-04 1.555138491468044e-04 1.219882094751767e-04
-1.277323520332274e-04 5.568667609732181e-04 3.501427107117649e-04
-7.747093967315877e-03 -3.601846083168048e-03 -3.105544483759104e-03
-2.579522656415367e-03 -1.257494994053920e-03 -7.883274315396704e-04
2.150229331338682e-03 1.216592946959305e-03 1.336464770499646e-03
3.441825176589308e-03 2.319935670922146e-03 1.870684969414782e-03
1.923776487615436e-03 1.883961334397943e-03 1.007008463357550e-03
7.295610384261408e-05 9.784247498193510e-04 -6.947705330873077e-05
-5.071556841018676e-04 4.691874338172974e-04 -4.088211999331293e-04
-7.799135422830172e-04 -3.183490507713271e-04 -5.115056362576809e-04
-1.372899290586926e-03 -1.278621780409051e-03 -7.288933798648145e-04
-2.114615921609553e-03 -1.957648754809638e-03 -9.975875442727045e-04
-2.656149755732695e-03 -2.179978699110907e-03 -1.196437363535807e-03
-2.866986162025631e-03 -2.123360845200373e-03 -1.279210253102292e-03
-3.680614092346768e-04 6.238930214430560e-05 2.180481988816041e-04
1.632375480922765e-05 8.111325836546168e-05 1.743149843704828e-04
2.557346217158529e-04 3.201014460307849e-05 6.598938611546146e-05
2.045065807183277e-04 -6.542269861364858e-05 -4.870738688822485e-05
6.612624480946405e-05 -9.251046834179988e-05 -7.487799362948522e-05
6.202907547674455e-06 -2.977849736196525e-05 -2.353481737671359e-05
1.691515379542707e-03 7.577684171354848e-04 4.326337134479274e-04
1.395933249412340e-03 7.643354313101591e-04 3.483667348227470e-04
8.567843332795144e-04 6.690363439423308e-04 1.938837056982834e-04
1.708006153589015e-04 4.114505792803813e-04 -2.557939215108718e-06
-4.663242021227254e-04 5.782510755647507e-05 -1.841283506465174e-04
-8.730867394639574e-04 -2.269270213971497e-04 -2.993293521029727e-04
6.466417170634120e-04 6.018623627752628e-04 6.265612849318813e-04