<?xml version="1.0" ?> 
<!-- 
# vtk DataFile Version 3.0
-->
<VTKFile type="UnstructuredGrid" version="0.1" compressor="vtkZLibDataCompressor" byte_order="LittleEndian">
  <UnstructuredGrid>
    <FieldData>
      <DataArray type="Float64" Name="TIME" NumberOfTuples="1" format="ascii">
1.000000000000000e+00 
      </DataArray>
      <DataArray type="Float64" Name="sum_coupling_force_beam" NumberOfTuples="1" NumberOfComponents="3" format="ascii">
2.731638092129919e-02 5.399855696697334e-02 5.249712416790061e-03 
      </DataArray>
      <DataArray type="Float64" Name="sum_coupling_force_solid" NumberOfTuples="1" NumberOfComponents="3" format="ascii">
-2.731638092129919e-02 -5.399855696697334e-02 -5.249712416790059e-03 
      </DataArray>
      <DataArray type="Float64" Name="sum_coupling_moment_beam" NumberOfTuples="1" NumberOfComponents="3" format="ascii">
-5.547313445857572e-14 -2.820621797333150e-13 4.947204660612337e-15 
      </DataArray>
      <DataArray type="Float64" Name="sum_coupling_moment_solid" NumberOfTuples="1" NumberOfComponents="3" format="ascii">
5.089915001042677e-01 -2.361539475638118e-01 2.418973706122939e-02 
      </DataArray>
    </FieldData>

    <Piece NumberOfPoints="334" NumberOfCells="0" >
      <Points>
        <DataArray type="Float64" NumberOfComponents="3" format="ascii">
1.245596198500000e+00 0.000000000000000e+00 1.799912997290000e+01
1.243247958050000e+00 3.000000000000000e-01 1.799976586030000e+01
1.500000000000000e+00 3.000000000000000e-01 1.850000000000000e+01
1.707207993010000e+00 3.000000000000000e-01 1.799996097670000e+01
1.000000000000000e+00 0.000000000000000e+00 1.850000000000000e+01
7.544038015000000e-01 3.000000000000000e-01 1.799912997290000e+01
5.000000000000000e-01 3.000000000000000e-01 1.850000000000000e+01
2.924006335830000e-01 3.000000000000000e-01 1.799985499550000e+01
2.927920069920000e-01 0.000000000000000e+00 1.799996097670000e+01
1.707599366420000e+00 0.000000000000000e+00 1.799985499550000e+01
1.500000000000000e+00 0.000000000000000e+00 1.850000000000000e+01
2.000000000000000e+00 0.000000000000000e+00 1.850000000000000e+01
2.000000000000000e+00 3.000000000000000e-01 1.850000000000000e+01
5.000000000000000e-01 3.000000000000000e-01 1.750000000000000e+01
9.634159207340000e-01 1.676975637670000e-01 1.778064918520000e+01
1.000000000000000e+00 3.000000000000000e-01 1.750000000000000e+01
5.000000000000000e-01 0.000000000000000e+00 1.750000000000000e+01
5.000000000000000e-01 0.000000000000000e+00 1.850000000000000e+01
1.000000000000000e+00 0.000000000000000e+00 1.750000000000000e+01
1.500000000000000e+00 0.000000000000000e+00 1.750000000000000e+01
7.567520419520000e-01 0.000000000000000e+00 1.799976586030000e+01
0.000000000000000e+00 0.000000000000000e+00 1.750000000000000e+01
1.500000000000000e+00 3.000000000000000e-01 1.750000000000000e+01
1.000000000000000e+00 3.000000000000000e-01 1.850000000000000e+01
2.000000000000000e+00 3.000000000000000e-01 1.750000000000000e+01
0.000000000000000e+00 3.000000000000000e-01 1.750000000000000e+01
0.000000000000000e+00 0.000000000000000e+00 1.850000000000000e+01
0.000000000000000e+00 0.000000000000000e+00 1.800000000000000e+01
0.000000000000000e+00 3.000000000000000e-01 1.800000000000000e+01
0.000000000000000e+00 3.000000000000000e-01 1.850000000000000e+01
2.000000000000000e+00 0.000000000000000e+00 1.800000000000000e+01
2.000000000000000e+00 0.000000000000000e+00 1.750000000000000e+01
2.000000000000000e+00 3.000000000000000e-01 1.800000000000000e+01
0.000000000000000e+00 1.000000000000000e+00 2.150000000000000e+01
0.000000000000000e+00 1.000000000000000e+00 2.100000000000000e+01
5.000000000000000e-01 8.660254037839999e-01 2.150000000000000e+01
0.000000000000000e+00 7.000000000000000e-01 2.150000000000000e+01
0.000000000000000e+00 1.000000000000000e+00 2.125000000000000e+01
2.588190451030000e-01 9.659258262890000e-01 2.125000000000000e+01
2.588190451030000e-01 9.659258262890000e-01 2.150000000000000e+01
0.000000000000000e+00 8.500000000000000e-01 2.150000000000000e+01
0.000000000000000e+00 8.500000000000000e-01 2.125000000000000e+01
2.500000000000000e-01 7.830127018920000e-01 2.150000000000000e+01
9.504792740630000e-01 3.107879495360000e-01 2.074983937880000e+01
6.426868539140000e-01 2.774051329860000e-01 2.075000000000000e+01
7.000000000000000e-01 0.000000000000000e+00 2.100000000000000e+01
7.000000000000000e-01 0.000000000000000e+00 2.150000000000000e+01
7.965830639880001e-01 2.940965412610000e-01 2.074991968940000e+01
6.855219900700000e-01 1.416319212970000e-01 2.087500000000000e+01
8.252396370310000e-01 1.553939747680000e-01 2.087491968940000e+01
8.252396370310000e-01 1.553939747680000e-01 2.112491968940000e+01
6.855219900700000e-01 1.416319212970000e-01 2.112500000000000e+01
7.000000000000000e-01 0.000000000000000e+00 2.125000000000000e+01
3.255782127380000e-01 7.657445073130000e-01 2.116083908080000e+01
2.795446833180000e-01 6.417591215000000e-01 2.075000000000000e+01
4.329390516020000e-01 9.014231956180000e-01 2.074976147080000e+01
7.283520826140000e-01 6.852030675290000e-01 2.101496824100000e+01
3.025614480280000e-01 7.037518144060000e-01 2.095541954040000e+01
3.562418674600000e-01 7.715911585590000e-01 2.074988073540000e+01
3.792586321700000e-01 8.335838514650000e-01 2.095530027580000e+01
5.269651476760000e-01 7.254737874210000e-01 2.108790366090000e+01
5.039483829660000e-01 6.634810945150000e-01 2.088248412050000e+01
5.906242972910000e-01 8.069466769560000e-01 2.088236485590000e+01
4.949747468310000e-01 4.949747468310000e-01 2.150000000000000e+01
6.116634147220000e-01 5.900889071800000e-01 2.125748412050000e+01
4.102764797840000e-01 6.303596270720000e-01 2.133041954040000e+01
3.941528892210000e-01 5.784837939980000e-01 2.112500000000000e+01
4.974873734150000e-01 6.805000753080001e-01 2.150000000000000e+01
4.127891063690000e-01 8.158849555490000e-01 2.133041954040000e+01
1.627891063690000e-01 7.328722536560000e-01 2.133041954040000e+01
2.678784026560000e-01 6.467156727580000e-01 2.150000000000000e+01
8.660254037839999e-01 5.000000000000000e-01 2.150000000000000e+01
7.543561288490001e-01 3.887025664930000e-01 2.112500000000000e+01
7.830127018920000e-01 2.500000000000000e-01 2.150000000000000e+01
9.131662560400000e-01 4.075872775610000e-01 2.112491968940000e+01
7.000000000000000e-01 0.000000000000000e+00 2.050000000000000e+01
1.000000000000000e+00 0.000000000000000e+00 2.050000000000000e+01
8.500000000000000e-01 0.000000000000000e+00 2.050000000000000e+01
9.875422203790000e-01 1.573542594550000e-01 2.062491968940000e+01
8.252396370310000e-01 1.553939747680000e-01 2.062491968940000e+01
7.000000000000000e-01 0.000000000000000e+00 2.075000000000000e+01
8.500000000000000e-01 0.000000000000000e+00 2.075000000000000e+01
8.660254037839999e-01 5.000000000000000e-01 2.000000000000000e+01
7.282793318550000e-01 6.852803913680000e-01 2.048410264420000e+01
7.543561288490001e-01 3.887025664930000e-01 2.037500000000000e+01
8.025173539410000e-01 5.966287762280000e-01 2.024205132210000e+01
6.854830928840000e-01 4.813427621770000e-01 2.061705132210000e+01
9.131662560400000e-01 4.075872775610000e-01 2.037491968940000e+01
8.600109077700000e-01 5.102756495440000e-01 2.061697101150000e+01
5.000000000000000e-01 8.660254037839999e-01 2.000000000000000e+01
4.949747468310000e-01 4.949747468310000e-01 2.000000000000000e+01
5.039120075870001e-01 6.635197564340000e-01 2.061705132210000e+01
3.897723416590000e-01 7.538922626420000e-01 2.037500000000000e+01
6.207533480730000e-01 7.840059188910000e-01 2.024205132210000e+01
6.116270393430000e-01 5.901275690990000e-01 2.024205132210000e+01
3.941528892210000e-01 5.784837939980000e-01 2.037500000000000e+01
4.974873734150000e-01 6.805000753080001e-01 2.000000000000000e+01
6.805000753080001e-01 4.974873734150000e-01 2.150000000000000e+01
8.025490242590000e-01 5.965861745470000e-01 2.125748412050000e+01
6.207949653770000e-01 7.839729657090000e-01 2.125748412050000e+01
7.071067811870000e-01 7.071067811870000e-01 2.150000000000000e+01
6.805000753080001e-01 4.974873734150000e-01 2.000000000000000e+01
7.071067811870000e-01 7.071067811870000e-01 2.000000000000000e+01
5.791395459380000e-01 3.931887413580000e-01 2.037500000000000e+01
6.855194682640000e-01 4.813041002570000e-01 2.088248412050000e+01
5.791395459380000e-01 3.931887413580000e-01 2.112500000000000e+01
1.427736231770000e-01 6.852851176880000e-01 2.112500000000000e+01
1.397723416590000e-01 8.208795607500000e-01 2.087500000000000e+01
1.627891063690000e-01 8.828722536560000e-01 2.108041954040000e+01
7.283157082610000e-01 6.852417304140000e-01 2.074953544260000e+01
5.905814604920000e-01 8.069780285250000e-01 2.061693205750000e+01
7.000000000000000e-01 0.000000000000000e+00 2.000000000000000e+01
8.500000000000000e-01 0.000000000000000e+00 2.025000000000000e+01
8.252396370310000e-01 1.553939747680000e-01 2.037491968940000e+01
7.000000000000000e-01 0.000000000000000e+00 2.025000000000000e+01
6.855219900700000e-01 1.416319212970000e-01 2.037500000000000e+01
7.830127018920000e-01 2.500000000000000e-01 2.000000000000000e+01
6.855219900700000e-01 1.416319212970000e-01 2.062500000000000e+01
4.668051728700000e-01 8.843601814770000e-01 2.112488073540000e+01
0.000000000000000e+00 7.000000000000000e-01 2.050000000000000e+01
0.000000000000000e+00 7.000000000000000e-01 2.100000000000000e+01
0.000000000000000e+00 8.500000000000000e-01 2.075000000000000e+01
1.427736231770000e-01 6.852851176880000e-01 2.062500000000000e+01
1.427736231770000e-01 6.852851176880000e-01 2.087500000000000e+01
0.000000000000000e+00 8.500000000000000e-01 2.100000000000000e+01
0.000000000000000e+00 7.000000000000000e-01 2.075000000000000e+01
0.000000000000000e+00 7.000000000000000e-01 2.125000000000000e+01
0.000000000000000e+00 7.000000000000000e-01 2.000000000000000e+01
0.000000000000000e+00 1.000000000000000e+00 2.050000000000000e+01
0.000000000000000e+00 8.500000000000000e-01 2.025000000000000e+01
1.397723416590000e-01 8.208795607500000e-01 2.062500000000000e+01
[...]
  <PointData>
        <DataArray type="Float64" Name="displacement" NumberOfComponents="3" format="ascii">
6.481757420960126e-17 -1.689751641047307e-16 5.804294111246043e-16
4.869693782753015e-16 4.270173025819375e-17 1.434484805663781e-15
-5.434987020793457e-16 1.340638026379694e-16 -1.438310922124268e-15
1.740638475880398e-16 -2.432664827252548e-16 -1.168493476561690e-15
-1.108954444993088e-15 5.775197327283972e-17 -3.431035452724788e-16
-4.471684272128262e-17 3.122420787350926e-16 -1.885300620301553e-15
-1.356136216568320e-16 4.380979204106265e-16 -1.256667404057372e-15
4.288245908329320e-17 2.770291621002544e-16 -1.141786585533126e-15
7.560936934175937e-17 2.952802147775481e-16 -9.757406899346774e-16
2.295588998525239e-16 -2.135771209350280e-16 -5.452394405322544e-16
-6.322430260418537e-16 2.700740745578463e-17 -5.143589143652270e-16
-1.474529968209401e-15 3.229906489953409e-16 7.566995578204789e-16
-2.245941675132051e-15 5.618099066186988e-16 9.015865797944076e-16
-1.130731713353391e-16 -1.925802843522842e-16 -3.008313930361231e-15
4.724240322395019e-16 1.628297003029675e-16 -3.490136208979969e-16
6.948031218109576e-16 -1.815543273197728e-16 -5.464751920185075e-16
-6.440555559345696e-17 6.373120150521855e-17 -1.825053778822383e-15
-1.425472596057711e-16 5.286046392788903e-16 -1.071736071165222e-15
4.740714045678284e-16 -7.914367251708293e-17 -9.175507238805269e-17
-2.211179122042731e-16 -4.732782684273707e-16 8.041133609786346e-17
-9.419187672984327e-18 4.253885729904952e-16 -1.343715272230533e-15
0.000000000000000e+00 0.000000000000000e+00 0.000000000000000e+00
-2.056400290308556e-16 -4.984462242172344e-16 -1.445971288214798e-16
-8.033738549113770e-16 3.108893832785113e-16 -3.110192791851842e-17
2.236546130688817e-16 -6.592591868494582e-16 -7.244985192563086e-16
0.000000000000000e+00 0.000000000000000e+00 0.000000000000000e+00
0.000000000000000e+00 0.000000000000000e+00 0.000000000000000e+00
0.000000000000000e+00 0.000000000000000e+00 0.000000000000000e+00
0.000000000000000e+00 0.000000000000000e+00 0.000000000000000e+00
0.000000000000000e+00 0.000000000000000e+00 0.000000000000000e+00
2.160118803878362e-16 2.440217203526012e-18 1.744315737180613e-17
2.130959598310254e-16 -6.310899276081884e-16 -3.596733098527284e-16
-7.262982827921012e-17 -6.040820668941096e-17 -2.037718032101352e-16
0.000000000000000e+00 0.000000000000000e+00 0.000000000000000e+00
0.000000000000000e+00 0.000000000000000e+00 0.000000000000000e+00
-8.577099983126231e-05 -2.812251079136963e-04 -4.476905939379168e-05
0.000000000000000e+00 0.000000000000000e+00 0.000000000000000e+00
0.000000000000000e+00 0.000000000000000e+00 0.000000000000000e+00
-8.177066115955042e-05 -3.296111244566768e-04 9.425222160010473e-06
6.663134011471460e-05 -1.056164879857805e-04 1.445123982587652e-05
0.000000000000000e+00 0.000000000000000e+00 0.000000000000000e+00
0.000000000000000e+00 0.000000000000000e+00 0.000000000000000e+00
-5.934281864670118e-05 -1.890898257586431e-04 2.661358870899415e-05
2.001705895697497e-04 2.487282284683589e-04 -1.084967845088018e-04
2.319312404603031e-04 2.854668429541390e-04 -1.249731251468661e-04
2.009075574510936e-04 7.394627432291802e-05 -2.900365083611012e-04
1.380028111369350e-04 -2.825137171842652e-04 -3.265118087104995e-04
2.098370074194578e-04 2.752294035226315e-04 -1.132564613424843e-04
1.971121888317735e-04 1.699430313622152e-04 -2.083126440927446e-04
1.950005135691347e-04 1.684740891924497e-04 -1.918666115995163e-04
1.740498160404179e-04 4.612197700554814e-06 -1.982973642809959e-04
1.788568597466756e-04 -2.962647495849533e-05 -2.284840950369794e-04
1.905039081513163e-04 -1.100813471599440e-04 -3.135048602233232e-04
-1.000555813630739e-04 -3.311910703295452e-04 -1.160831974685581e-05
1.154830929265805e-04 -2.691498657573754e-05 -1.154111787226492e-04
-2.987641201121624e-05 5.915208317688972e-05 6.360523784701929e-05
6.451109577209081e-05 7.623371062006504e-05 9.688855709508351e-05
-1.070698427966110e-05 -2.105405422919941e-04 -7.001689683895330e-05
5.892191513691714e-05 7.624444679961045e-06 -3.391294365235743e-05
-8.677683774501305e-05 -2.495855200473437e-04 -2.238757485376488e-05
-3.680353494900729e-05 -2.149152383118852e-04 -4.576902139723606e-06
1.234039095093434e-04 2.727269777602587e-05 -5.206874424099866e-05
5.310820565302665e-05 1.014898645552374e-04 8.779757126724390e-05
-8.085240118903608e-05 -3.486652440002517e-04 -6.956456812046892e-05
-2.677560286793147e-05 -2.095928937042048e-04 -4.788360871027595e-06
-9.598198966082546e-05 -3.437929939103360e-04 -3.081390719854149e-05
-9.207141016094861e-07 -2.725551511500554e-04 -1.158378194650651e-04
-1.156257108038888e-04 -3.287793638121277e-04 -1.408087081800697e-05
-1.278699246448711e-04 -3.746774051279098e-04 1.126191562621625e-05
-8.403048210140511e-05 -2.147352807154098e-04 5.712477022297849e-06
-1.299714094597539e-04 -2.664426742879092e-04 2.273052091612774e-05
-7.951000869815926e-05 -2.254029983575830e-04 4.507428255372983e-05
1.244670096071848e-04 -1.149129445838602e-05 -8.311073366966308e-05
3.610833607180184e-05 -2.516524943063348e-04 -1.560275125078939e-04
1.192087264037382e-04 2.649512794020403e-05 -2.552854257803269e-05
3.288896493755613e-04 2.052813959832327e-04 -3.104365695889332e-04
3.121074886833161e-04 3.527264978678081e-04 -1.804614498940171e-04
3.118802741250744e-04 2.860399324843282e-04 -2.397924100756570e-04
1.817540551636970e-04 2.750580094888165e-04 -1.185326334242672e-04
1.820346751347092e-04 2.487744273456239e-04 -1.642599196881078e-04
2.139032450799653e-04 1.903215509779143e-04 -2.615593767817274e-04
2.052977827264718e-04 2.067748163796869e-04 -2.351443247489481e-04
1.535560556811364e-04 5.365389409875897e-04 4.460279281342118e-05
1.729560739341228e-04 4.556281091170539e-04 5.327749689495681e-05
9.435591126398243e-05 2.991109589038486e-04 -4.252458614761542e-05
7.138682779122033e-05 3.882479378165411e-04 3.095845655453984e-05
2.206990990740541e-04 3.743610007610523e-04 -1.397387144850090e-05
2.596340856349580e-05 3.017917738470511e-04 1.428807382160131e-05
1.531010698231946e-04 3.313273238006601e-04 7.559414090173129e-06
-3.524718762224033e-05 2.290383951352827e-04 -2.542534749469669e-05
1.476321752844528e-04 2.353886188116723e-04 -2.516663350925896e-05
1.998206174102099e-04 2.570318383310633e-04 -2.219894062414096e-06
6.614928616588662e-05 1.832978403948756e-04 8.174695830688890e-06
3.654604913581054e-05 3.250210915778581e-04 -8.211589036776855e-06
1.212111682693154e-04 3.158993486207832e-04 -2.333043274029791e-06
1.623708177438573e-04 1.994553505550805e-04 2.181828284971505e-07
5.397181382646435e-05 2.339799020256132e-04 -1.379917245340042e-05
-7.927365062540312e-05 -2.937313802011611e-04 -2.197320001349841e-05
-1.566736767291477e-05 -1.003853479764414e-04 7.924603398433476e-05
-1.121520628537096e-04 -2.357580061914424e-04 5.833612669105042e-05
-1.361415631071586e-04 -2.656798450775734e-04 6.014482707063700e-05
1.514594302541310e-04 3.646024889486061e-04 -2.940940406892832e-05
5.799662642337994e-05 3.731946842896221e-04 2.727294963009439e-06
1.566799795229108e-04 2.770003845063134e-04 -4.009685352520572e-05
2.106183598937235e-04 2.048024415940097e-04 -5.496114340314457e-05
1.219535057239386e-04 -9.779050116949612e-05 -1.557862418912714e-04
-7.474789246940175e-05 -1.864810174542624e-04 -3.316216169540383e-05
-1.014608501186611e-07 -9.194629420945717e-05 -3.700286954777329e-05
-6.822202272987499e-05 -2.083154021289171e-04 -9.525848738432272e-06
3.496810639593050e-04 5.535180493198093e-04 1.047238868161518e-04
8.846792642397394e-05 3.476606085681808e-04 4.196951774935970e-05
1.166531446974247e-03 3.989988811113438e-04 -5.528830621503347e-04
6.617468092537026e-04 4.331583897968001e-04 -3.057795794676675e-04
2.837423953932316e-04 3.085086437460259e-04 -1.759220261532538e-04
6.587641148495193e-04 2.395353599074403e-04 -4.360787215910080e-04
3.041733793869805e-04 1.822466171212079e-04 -2.790133669395875e-04
5.326389553758190e-04 5.199852015913554e-04 -1.589277035519666e-04
1.999950277358015e-04 2.178060808622612e-04 -1.965674609024705e-04
-2.022047607943148e-04 -3.980011284575304e-04 -1.478473460931080e-05
0.000000000000000e+00 0.000000000000000e+00 0.000000000000000e+00
0.000000000000000e+00 0.000000000000000e+00 0.000000000000000e+00
0.000000000000000e+00 0.000000000000000e+00 0.000000000000000e+00
4.896592949107158e-05 -1.911870578086634e-06 -4.604734274613061e-05
1.918956524619568e-06 -8.761987363351537e-05 -7.651150523264836e-05
0.000000000000000e+00 0.000000000000000e+00 0.000000000000000e+00
0.000000000000000e+00 0.000000000000000e+00 0.000000000000000e+00
0.000000000000000e+00 0.000000000000000e+00 0.000000000000000e+00
0.000000000000000e+00 0.000000000000000e+00 0.000000000000000e+00
0.000000000000000e+00 0.000000000000000e+00 0.000000000000000e+00
0.000000000000000e+00 0.000000000000000e+00 0.000000000000000e+00
1.516344852345044e-05 -8.649832209468496e-06 -1.441374593090296e-05
5.103370504010272e-05 4.501634900944076e-05 -1.566784441246034e-05
1.548445136964058e-05 8.152427510850908e-05 2.931979196911590e-06
-4.243417221655590e-05 1.003109889428007e-04 3.507008001005958e-06
1.413694083814996e-04 -1.624799901913634e-04 -2.506950986114720e-04
3.373491577896863e-05 -1.808091377028319e-04 -8.829960812790386e-05
1.409754110050036e-04 -2.218423436533261e-04 -2.873250419772725e-04
1.696652021987197e-04 4.042427162403529e-05 -1.680460868952264e-04
1.393767565398637e-03 1.274855347462394e-03 -1.060035548647838e-04
7.206698178804579e-04 7.052950025112811e-04 -1.585752337356914e-04
1.237957099632549e-03 7.571937308767363e-04 -3.557503655972831e-04
2.969569792496007e-04 4.707729144425191e-04 -5.783819934928857e-05
2.077853120720108e-04 1.067121317579477e-04 -2.558941899228156e-04
1.906055686175364e-04 -6.765085984356652e-05 -2.850090553691254e-04
1.943799387513400e-04 1.766007560536674e-04 -1.722699239528129e-04
1.905308780339548e-04 -2.642618229030701e-05 -2.565551534652424e-04
0.000000000000000e+00 0.000000000000000e+00 0.000000000000000e+00
0.000000000000000e+00 0.000000000000000e+00 0.000000000000000e+00
-4.934773027352077e-05 8.803765357782031e-05 -7.653917443756253e-06
0.000000000000000e+00 0.000000000000000e+00 0.000000000000000e+00
2.888390599157466e-04 2.400655615153334e-04 -9.675723829688103e-05
7.979155735579934e-05 9.698239276943229e-05 2.161689055777610e-05
0.000000000000000e+00 0.000000000000000e+00 0.000000000000000e+00
0.000000000000000e+00 0.000000000000000e+00 0.000000000000000e+00
1.906543565159732e-04 1.914241095896247e-04 2.410249226861613e-05
2.031474760525506e-04 8.510263071146342e-05 -2.720557170151399e-04
-2.615250229681676e-05 -1.091926415787713e-04 3.323780223267251e-05
-2.706998757279668e-05 2.269533617190664e-05 4.037306733251514e-05
0.000000000000000e+00 0.000000000000000e+00 0.000000000000000e+00
2.228351289730077e-04 2.357291703777923e-04 -2.174894997641696e-04
4.781313973096292e-04 3.238591814285034e-04 -2.250232208722212e-04
-1.310214391725372e-05 2.294252652552060e-04 2.054232076016045e-05
2.786724863552257e-05 -2.922834217720456e-04 -1.846563675891127e-04
5.887737671745289e-04 8.902988726883236e-04 3.902635217618871e-05
-1.998880305764001e-16 -4.819294723601577e-15 2.180344206326374e-15
2.314752219655456e-16 -4.389412597521151e-15 -6.020803247789758e-17
-2.540317051825392e-16 -4.531645763496804e-15 1.775731327033655e-15
5.104829164219183e-16 -6.136863398525317e-15 3.006408183354064e-15
1.045146644034539e-16 -4.667372248143978e-15 1.415692351242207e-15
-4.440776057670617e-16 -4.689019388902748e-15 5.700802135642498e-16
-3.280760780416328e-16 -4.551736707512452e-15 1.747580257051375e-15
7.904394431723199e-17 -5.461281418102126e-15 2.147363903705010e-15
3.408412974398168e-16 -5.469769677318479e-15 1.670170933366389e-15
1.657027926162945e-16 -5.697458239504140e-15 2.677278258859531e-15
-1.760567434631929e-16 -3.313381586012269e-15 2.581502434586109e-15
-2.397793482504897e-17 -3.832821295312687e-15 1.825093594314039e-15
-1.755434296545794e-16 -3.394094449463048e-15 1.851422693435637e-15
-3.381928503452389e-16 -3.990014115954019e-15 2.362601027811065e-15
1.412902956886113e-15 -3.367074935068516e-15 4.780695999899042e-15
-2.670076054690988e-17 -2.173984179503747e-15 2.158834431552845e-15
4.738483682456886e-16 -9.271234366927913e-16 1.534377370463523e-15
-6.438230326351168e-16 -9.158519118732772e-16 1.058496746386117e-15
5.402690956408368e-16 -2.796797745221031e-15 2.988425664432492e-15
4.352217095140524e-16 -1.635758977538363e-15 1.872469044915746e-15
8.479850484550041e-16 -2.175718711098354e-15 3.487637268270286e-15
1.236440992043028e-16 -2.252097400566093e-15 2.775462639428489e-15
-2.646529401711614e-16 -1.671622338920333e-15 1.874667855304696e-15
-6.201248070103704e-17 -9.149453509614026e-16 1.328448451187820e-15
-2.800015308255688e-16 -6.060210906936811e-15 3.067650878293663e-15
-1.169344304685329e-15 -4.421843541063526e-15 2.731950589054998e-15
-2.292110421667007e-16 -5.434157128532471e-15 2.475005864834472e-15
1.425224247730265e-16 -6.079437060853356e-15 3.009577890178294e-15
-6.671024732177908e-16 -4.554587998871278e-15 2.327126685456642e-15
-7.415119536807978e-16 -5.397385248380272e-15 2.930760860124585e-15
-1.345960240378807e-16 -5.454743128913261e-15 2.771567754116768e-15
-1.242110193361621e-15 -8.838108149571297e-15 2.800132658473571e-15
4.358494964061537e-15 -9.035083247916343e-15 4.821502828405686e-15
9.092237621055784e-17 -6.188716830286654e-15 3.319347963444074e-15
1.886850961387828e-15 -6.647952732992599e-15 3.983922342742850e-15
1.084750435299479e-15 -8.779715007480019e-15 3.413035944515813e-15
6.964439114842503e-17 -6.638441468550562e-15 3.553440922929699e-15
1.508472639097999e-15 -6.767852639889350e-15 4.294407686218668e-15
-1.017092266813349e-15 -6.709059503464235e-15 3.195607179934472e-15
-1.242947201392649e-15 -6.194644905479996e-15 3.119233378752847e-15
1.821137018838287e-15 1.178227788141689e-15 6.266404012498514e-15
6.843517306511661e-16 -3.621809468869797e-15 2.853717523613966e-15
9.509970586308722e-16 -2.532264602124886e-15 3.058579748809898e-15
1.237930589018620e-15 -1.128287971014665e-15 4.961594898814774e-15
9.859877414281742e-16 -3.047138465134296e-15 3.125403607287563e-15
1.124804971601743e-15 -2.859900402162570e-17 5.160243408652087e-15
2.046595290881651e-15 -1.605442694074290e-15 6.730520713162631e-15
1.104891170988882e-15 -3.461706376645768e-15 3.730684008637032e-15
1.854001412575872e-15 -2.839740727046394e-15 4.866377429695844e-15
8.170636652074136e-16 1.499450127285537e-15 1.662632275383384e-15
6.545310499225317e-16 -1.721857029719825e-15 3.910943897310635e-15
1.303050372658270e-15 1.456993204354565e-15 3.609500269728918e-15
3.166082947378741e-16 -5.653206217275093e-16 2.091676697090343e-15
6.915727246782266e-16 -7.065856619657488e-16 3.495754286639891e-15
-1.142479273690110e-15 -1.981761510844273e-15 2.341744458510958e-15
-1.495932952259080e-16 -2.910413664557901e-15 2.786621971055682e-15
-6.011704943880695e-16 -2.123590955128244e-15 2.223036832227864e-15
-9.010447610424857e-16 -1.636414856637736e-15 1.796173338115530e-15
-9.016872137604695e-17 -4.782094683429246e-16 1.285668399377280e-15
-9.421331617565087e-16 -2.503173959856502e-15 2.036184163331977e-15
-1.760743775204458e-16 -1.039885133635830e-16 2.439131778897953e-15
3.773374017930750e-16 -1.238704019900080e-15 3.301531603826715e-15
-9.828777632554741e-18 -3.147885422348599e-15 2.502332605713460e-15
5.241036067193614e-16 -2.779147774933892e-17 3.822699389320401e-15
2.757295976610040e-16 -5.952983978430707e-15 2.385001436658579e-15
1.292023073622362e-17 -5.563782474034610e-15 2.187005305944147e-15
1.565089483072732e-16 -4.523839899983755e-15 2.193384014045614e-15
1.762423728693067e-16 -4.870561903100363e-15 1.967228599397255e-15
-4.187135869282878e-16 -4.507716909007913e-15 1.833632340468038e-15
-3.230166692078460e-16 -4.421093236812535e-15 1.951302435933223e-15
-2.643569920968681e-16 -3.426487142389622e-15 2.863751360559541e-15
-3.308178332458749e-16 -2.997444730670485e-15 2.505034315493162e-15
2.042696073894237e-16 -3.506205722244820e-15 2.928548654916220e-15
-8.862038029515044e-17 -1.708361825823839e-15 2.490581457929816e-15
0.000000000000000e+00 0.000000000000000e+00 0.000000000000000e+00
6.551452857508433e-16 6.642779048196827e-16 5.140556077594039e-16
-4.957381111702380e-17 2.169986940244128e-17 2.966968885187177e-16
1.180850942466847e-16 -3.403032124060607e-18 3.959505309937254e-16
1.392422465797334e-15 -6.129992805812846e-15 2.208503482457747e-15
8.208987122212109e-16 -6.079228672604320e-15 2.312286265621256e-15
1.167605567045907e-15 -5.365626090621628e-15 1.628396958618612e-15
5.408471687851738e-16 -5.543915058481683e-15 1.903518632871289e-15
6.438807215764966e-16 -6.136479929209075e-15 2.598517775691944e-15
1.087611264432668e-15 -6.203823531760243e-15 2.474363230367817e-15
3.442879007774095e-16 -3.350673759684487e-15 2.173705301291480e-15
-3.376169137080514e-16 -3.589536200521551e-15 2.696779084567473e-15
1.062020252868875e-16 -3.305611767312937e-15 2.377799455259496e-15
1.421389570865188e-16 -3.610426446306948e-15 2.698883283385182e-15
-7.710901573024994e-16 -2.869520055453921e-15 2.655172620566159e-15
-5.335732365583303e-16 -2.963038089801668e-15 2.743271142491515e-15
-1.947389170890062e-16 -3.076609143459554e-15 2.647236540216449e-15
1.475640703463923e-15 -7.421661703516140e-15 3.336227474227604e-15
1.158361656296864e-16 -6.092583601985897e-15 2.667558487521817e-15
6.022708316102669e-16 -6.776925398729450e-15 3.221338566407852e-15
1.060141406771317e-15 -6.790417575213534e-15 2.929856148562989e-15
9.621470306918823e-16 -6.770042378930741e-15 3.091037819454644e-15
1.489382659732745e-15 -6.806178630453202e-15 2.786307761901202e-15
5.707403619314923e-17 -2.520923407678727e-15 2.783447378346280e-15
0.000000000000000e+00 0.000000000000000e+00 0.000000000000000e+00
2.358741298783102e-16 -1.349299611240738e-17 2.649798208519909e-16
8.425940757775485e-16 4.152820769900437e-16 9.339725772680893e-16
0.000000000000000e+00 0.000000000000000e+00 0.000000000000000e+00
0.000000000000000e+00 0.000000000000000e+00 0.000000000000000e+00
0.000000000000000e+00 0.000000000000000e+00 0.000000000000000e+00
0.000000000000000e+00 0.000000000000000e+00 0.000000000000000e+00
-1.006888737416145e-16 -3.773232211612077e-16 5.661592331682878e-16
1.227193587214270e-17 -2.649512408031857e-16 5.246293495580582e-16
0.000000000000000e+00 0.000000000000000e+00 0.000000000000000e+00
0.000000000000000e+00 0.000000000000000e+00 0.000000000000000e+00
2.865162100431673e-16 -3.099130528311368e-16 6.243068860911719e-16
0.000000000000000e+00 0.000000000000000e+00 0.000000000000000e+00
-6.083010174794334e-16 -7.951348674730242e-16 1.139325058679377e-15
-4.254147580745414e-16 -4.680994595369422e-16 4.744956155766489e-16
0.000000000000000e+00 0.000000000000000e+00 0.000000000000000e+00
0.000000000000000e+00 0.000000000000000e+00 0.000000000000000e+00
2.198822096898649e-16 -3.868899695104024e-16 5.994714450839754e-16
-1.371638601044178e-16 -7.477604999000550e-16 1.073411291558935e-15
0.000000000000000e+00 0.000000000000000e+00 0.000000000000000e+00
-3.520919588390913e-16 -3.307275939408677e-16 3.878367784929506e-16
-1.758082076226845e-16 -7.020573611656266e-15 3.584236033068831e-15
5.937736853165159e-16 -7.152190950235580e-15 3.560165018238545e-15
1.194405579959062e-16 -6.513329382931671e-15 3.289120453859977e-15
-2.840658256914700e-16 -6.506469160954724e-15 3.337227898681676e-15
7.422253743082645e-16 -7.433251480930587e-15 3.683260091427339e-15
6.168531766139306e-16 -6.744245847994411e-15 3.078952733977268e-15
1.111081467393488e-15 -7.431835414815154e-15 3.507657655514260e-15
1.793302812631417e-16 -6.771764276246797e-15 3.363380509439232e-15
6.262550648861943e-17 -7.810409283078275e-15 3.417743985240071e-15
-1.123815467945369e-15 -7.881501108145590e-15 3.174583171605882e-15
5.323725847213502e-16 -7.013975122004155e-15 3.588789378410646e-15
1.385832564114227e-15 -7.923029475808367e-15 3.805783461035497e-15