<?xml version="1.0" ?> 
<!-- 
# vtk DataFile Version 3.0
-->
<VTKFile type="UnstructuredGrid" version="0.1" compressor="vtkZLibDataCompressor" byte_order="LittleEndian">
  <UnstructuredGrid>
    <FieldData>
      <DataArray type="Float64" Name="TIME" NumberOfTuples="1" format="ascii">
1.000000000000000e+00 
      </DataArray>
    </FieldData>

    <Piece NumberOfPoints="144" NumberOfCells="24" >
      <Points>
        <DataArray type="Float64" NumberOfComponents="3" format="ascii">
9.973931072023358e-01 7.070273513256649e-02 -6.938893903907228e-17
9.866136483985295e-01 1.604856085446789e-01 9.053228542927573e-02
9.677380497715522e-01 2.489458430537846e-01 1.810742716976263e-01
9.410473093872264e-01 3.354050493183089e-01 2.716221624152878e-01
9.068224253113737e-01 4.191848379966774e-01 3.621721611924967e-01
8.653443956098171e-01 4.996068197473149e-01 4.527204716394889e-01
8.653443956098172e-01 4.996068197473150e-01 4.527204716394889e-01
8.606057705834157e-01 5.077844949056290e-01 4.621765142449014e-01
8.557914246230207e-01 5.159173770345565e-01 4.716324927077273e-01
8.509016777839988e-01 5.240046934520908e-01 4.810884027038982e-01
8.459368501217162e-01 5.320456714762245e-01 4.905442399093451e-01
8.408972616915399e-01 5.400395384249512e-01 4.999999999999999e-01
8.408972616915398e-01 5.400395384249512e-01 5.000000000000000e-01
8.170876849900768e-01 5.757158235670548e-01 5.429253422855891e-01
7.917739045685840e-01 6.103329816742563e-01 5.858486016436824e-01
7.649858644473688e-01 6.438187214866111e-01 6.287693735192814e-01
7.367535086467382e-01 6.761007517441737e-01 6.716872533573865e-01
7.071067811870000e-01 7.071067811870000e-01 7.146018366030000e-01
4.790802794582723e-01 8.767986476933661e-01 1.000000000000000e+00
3.890256016970578e-01 9.201415524530955e-01 1.100009484049564e+00
2.951762298479044e-01 9.545117333401653e-01 1.200019341012200e+00
1.984461689335310e-01 9.795305970780338e-01 1.300024455950053e+00
9.974942397665652e-02 9.948195503901592e-01 1.400019713925271e+00
0.000000000000000e+00 1.000000000000000e+00 1.500000000000000e+00
7.071067811870000e-01 7.071067811870000e-01 7.146018366030000e-01
6.690967767716574e-01 7.430949925337155e-01 7.669700274458290e-01
6.292104186336656e-01 7.769672706542466e-01 8.193429944767483e-01
5.875790665592957e-01 8.086692045435618e-01 8.717200025825729e-01
5.443340803348191e-01 8.381463831966292e-01 9.241003166501179e-01
4.996068197465065e-01 8.653443956084170e-01 9.764832015661983e-01
4.996068197465066e-01 8.653443956084170e-01 9.764832015661981e-01
4.955229120708071e-01 8.676730276519552e-01 9.811865337838428e-01
4.914282091254284e-01 8.699828082651087e-01 9.858898802681226e-01
4.873228059890758e-01 8.722736980649878e-01 9.905932404869608e-01
4.832067977404553e-01 8.745456576687034e-01 9.952966139082789e-01
4.790802794582723e-01 8.767986476933661e-01 1.000000000000000e+00
4.999999999999999e-01 3.000000000000000e-01 2.709523809523774e+00
5.999999999999958e-01 2.999999999999999e-01 2.761904761904752e+00
6.999999999999910e-01 3.000000000000000e-01 2.814285714285731e+00
7.999999999999883e-01 3.000000000000000e-01 2.866666666666708e+00
8.999999999999901e-01 3.000000000000000e-01 2.919047619047674e+00
9.999999999999996e-01 2.999999999999999e-01 2.971428571428627e+00
1.054545454545373e+00 3.000000000000000e-01 3.000000000000000e+00
1.073636363636297e+00 3.000000000000000e-01 3.010000000000002e+00
1.092727272727222e+00 3.000000000000000e-01 3.020000000000003e+00
1.111818181818148e+00 3.000000000000000e-01 3.030000000000003e+00
1.130909090909074e+00 3.000000000000000e-01 3.040000000000002e+00
1.150000000000000e+00 3.000000000000000e-01 3.050000000000000e+00
9.999999999999997e-01 3.000000000000000e-01 2.971428571428627e+00
1.010909090909074e+00 3.000000000000000e-01 2.977142857142902e+00
1.021818181818148e+00 3.000000000000000e-01 2.982857142857177e+00
1.032727272727223e+00 3.000000000000000e-01 2.988571428571452e+00
1.043636363636297e+00 3.000000000000000e-01 2.994285714285726e+00
1.054545454545372e+00 3.000000000000000e-01 3.000000000000000e+00
1.000000000000000e-01 3.000000000000000e-01 2.500000000000000e+00
1.800000000000127e-01 3.000000000000000e-01 2.541904761904731e+00
2.600000000000177e-01 3.000000000000000e-01 2.583809523809476e+00
3.400000000000162e-01 3.000000000000000e-01 2.625714285714233e+00
4.200000000000099e-01 3.000000000000000e-01 2.667619047619000e+00
4.999999999999999e-01 3.000000000000000e-01 2.709523809523774e+00
1.500000000000000e+00 3.000000000000000e-01 3.233333333333286e+00
1.599999999999998e+00 3.000000000000000e-01 3.285714285714262e+00
1.699999999999995e+00 3.000000000000000e-01 3.338095238095243e+00
1.799999999999992e+00 3.000000000000000e-01 3.390476190476223e+00
1.899999999999994e+00 3.000000000000000e-01 3.442857142857195e+00
2.000000000000000e+00 2.999999999999999e-01 3.495238095238156e+00
1.150000000000000e+00 3.000000000000000e-01 3.050000000000000e+00
1.220000000000010e+00 3.000000000000000e-01 3.086666666666638e+00
1.290000000000014e+00 2.999999999999999e-01 3.123333333333286e+00
1.360000000000014e+00 3.000000000000000e-01 3.159999999999946e+00
1.430000000000009e+00 3.000000000000000e-01 3.196666666666613e+00
1.500000000000000e+00 3.000000000000000e-01 3.233333333333286e+00
8.653443956095521e-01 4.996068197471640e-01 5.452720471638520e+00
8.606057705830017e-01 5.077844949057551e-01 5.462176514244124e+00
8.557914246224535e-01 5.159173770349559e-01 5.471632492707142e+00
8.509016777832745e-01 5.240046934527592e-01 5.481088402703506e+00
8.459368501208311e-01 5.320456714771583e-01 5.490544239909148e+00
8.408972616904899e-01 5.400395384261462e-01 5.499999999999999e+00
9.973931072026408e-01 7.070273512785316e-02 4.999999999999999e+00
9.866136483990291e-01 1.604856085406811e-01 5.090532285429301e+00
9.677380497720582e-01 2.489458430506826e-01 5.181074271697498e+00
9.410473093875844e-01 3.354050493162013e-01 5.271622162414896e+00
9.068224253114635e-01 4.191848379955807e-01 5.362172161191801e+00
8.653443956095521e-01 4.996068197471640e-01 5.452720471638520e+00
8.408972616904897e-01 5.400395384261465e-01 5.500000000000000e+00
8.170876849891515e-01 5.757158235680642e-01 5.542925342284895e+00
7.917739045678241e-01 6.103329816750589e-01 5.585848601642335e+00
7.649858644468165e-01 6.438187214871797e-01 5.628769373517326e+00
7.367535086464386e-01 6.761007517444770e-01 5.671687253354878e+00
7.071067811870000e-01 7.071067811870000e-01 5.714601836600000e+00
7.071067811870000e-01 7.071067811870000e-01 5.714601836600000e+00
6.690967767716191e-01 7.430949925337621e-01 5.766970027442925e+00
6.292104186336188e-01 7.769672706543244e-01 5.819342994473974e+00
5.875790665592660e-01 8.086692045436575e-01 5.871720002579959e+00
5.443340803348260e-01 8.381463831967313e-01 5.924100316647687e+00
4.996068197465658e-01 8.653443956085164e-01 5.976483201563967e+00
4.996068197465658e-01 8.653443956085164e-01 5.976483201563967e+00
4.955229120705003e-01 8.676730276522646e-01 5.981186533782057e+00
4.914282091247534e-01 8.699828082656247e-01 5.985889880266783e+00
4.873228059880312e-01 8.722736980657070e-01 5.990593240486069e+00
4.832067977390389e-01 8.745456576696220e-01 5.995296613907833e+00
4.790802794564825e-01 8.767986476944808e-01 5.999999999999999e+00
4.790802794564826e-01 8.767986476944806e-01 6.000000000000000e+00
3.890256016956326e-01 9.201415524538565e-01 6.100009484049631e+00
2.951762298468837e-01 9.545117333406204e-01 6.200019341012337e+00
1.984461689329115e-01 9.795305970782480e-01 6.300024455950227e+00
9.974942397639175e-02 9.948195503902157e-01 6.400019713925412e+00
0.000000000000000e+00 1.000000000000000e+00 6.500000000000000e+00
1.000000000000000e-01 3.000000000000000e-01 7.500000000000000e+00
1.800000000000128e-01 3.000000000000000e-01 7.541904761904729e+00
2.600000000000176e-01 2.999999999999999e-01 7.583809523809474e+00
3.400000000000162e-01 3.000000000000000e-01 7.625714285714233e+00
4.200000000000100e-01 3.000000000000000e-01 7.667619047619000e+00
5.000000000000000e-01 3.000000000000000e-01 7.709523809523774e+00
5.000000000000000e-01 3.000000000000000e-01 7.709523809523774e+00
5.999999999999959e-01 2.999999999999999e-01 7.761904761904751e+00
6.999999999999912e-01 3.000000000000000e-01 7.814285714285733e+00
7.999999999999885e-01 3.000000000000000e-01 7.866666666666709e+00
8.999999999999905e-01 3.000000000000000e-01 7.919047619047674e+00
1.000000000000000e+00 3.000000000000000e-01 7.971428571428629e+00
1.054545454545368e+00 2.999999999999999e-01 7.999999999999998e+00
1.073636363636293e+00 3.000000000000000e-01 8.010000000000000e+00
1.092727272727220e+00 3.000000000000000e-01 8.020000000000001e+00
1.111818181818146e+00 2.999999999999999e-01 8.030000000000001e+00
1.130909090909072e+00 2.999999999999999e-01 8.040000000000001e+00
1.150000000000000e+00 3.000000000000000e-01 8.050000000000001e+00
1.000000000000000e+00 3.000000000000000e-01 7.971428571428629e+00
1.010909090909074e+00 3.000000000000000e-01 7.977142857142901e+00
1.021818181818148e+00 3.000000000000000e-01 7.982857142857179e+00
1.032727272727222e+00 3.000000000000000e-01 7.988571428571452e+00
1.043636363636296e+00 3.000000000000000e-01 7.994285714285724e+00
1.054545454545370e+00 3.000000000000000e-01 8.000000000000000e+00
1.150000000000000e+00 3.000000000000000e-01 8.050000000000001e+00
1.220000000000010e+00 3.000000000000000e-01 8.086666666666639e+00
1.290000000000014e+00 3.000000000000000e-01 8.123333333333287e+00
1.360000000000013e+00 2.999999999999999e-01 8.159999999999945e+00
1.430000000000008e+00 3.000000000000000e-01 8.196666666666616e+00
1.500000000000000e+00 3.000000000000000e-01 8.233333333333286e+00
1.500000000000000e+00 3.000000000000000e-01 8.233333333333286e+00
1.599999999999998e+00 2.999999999999999e-01 8.285714285714262e+00
1.699999999999995e+00 3.000000000000000e-01 8.338095238095244e+00
1.799999999999992e+00 3.000000000000000e-01 8.390476190476223e+00
1.899999999999993e+00 3.000000000000000e-01 8.442857142857196e+00
2.000000000000000e+00 3.000000000000000e-01 8.495238095238156e+00
        </DataArray>
      </Points>

      <Cells>
        <DataArray type="Int32" Name="connectivity" format="ascii">
0 1 2 3 4 5 6 7 8 9 10 11 12 13 14 15 16 17 18 19 20 21 22 23 24 25 26 27 28 29 30 31 32 33 34 35 36 37 38 39 40 41 42 43 44 45 46 47 48 49 50 51 52 53 54 55 56 57 58 59 60 61 62 63 64 65 66 67 68 69 70 71 72 73 74 75 76 77 78 79 80 81 82 83 84 85 86 87 88 89 90 91 92 93 94 95 96 97 98 99 100 101 102 103 104 105 106 107 108 109 110 111 112 113 114 115 116 117 118 119 120 121 122 123 124 125 126 127 128 129 130 131 132 133 134 135 136 137 138 139 140 141 142 143 
        </DataArray>
        <DataArray type="Int32" Name="offsets" format="ascii">
6 12 18 24 30 36 42 48 54 60 66 72 78 84 90 96 102 108 114 120 126 132 138 144 
        </DataArray>
        <DataArray type="UInt8" Name="types" format="ascii">
4 4 4 4 4 4 4 4 4 4 4 4 4 4 4 4 4 4 4 4 4 4 4 4 
        </DataArray>
      </Cells>

  <PointData>
        <DataArray type="Float64" Name="displacement" NumberOfComponents="3" format="ascii">
-3.083781767433558e-02 -2.533352098980338e-02 1.575168914743926e-02
-2.452652659795485e-02 -1.867834428081544e-02 8.482494140760549e-03
-2.000985467642469e-02 -1.410249534444141e-02 3.580433875390115e-03
-1.701322984931275e-02 -1.115149834551837e-02 5.011550306999180e-04
-1.526208005618657e-02 -9.370877448883763e-03 -1.299695713938009e-03
-1.448183323661378e-02 -8.306156819374466e-03 -2.366471679151827e-03
-1.448183323661389e-02 -8.306156819374577e-03 -2.366471679151938e-03
-1.444523359076477e-02 -8.217864636329897e-03 -2.457566310564985e-03
-1.441591566813405e-02 -8.131906005518053e-03 -2.547211780630942e-03
-1.439356673254233e-02 -8.047763281276099e-03 -2.636028105011068e-03
-1.437787404781032e-02 -7.964918817941147e-03 -2.724635299366285e-03
-1.436852487775941e-02 -7.882854969850306e-03 -2.813653379358294e-03
-1.436852487775930e-02 -7.882854969850195e-03 -2.813653379358294e-03
-1.439727553669257e-02 -7.505935316090007e-03 -3.239931645952931e-03
-1.452105519115765e-02 -7.086004852941308e-03 -3.745463713145769e-03
-1.471060459579443e-02 -6.574633234104454e-03 -4.388257549210572e-03
-1.493666450524400e-02 -5.923390113279803e-03 -5.226321122420940e-03
-1.516997567414691e-02 -5.083845144167709e-03 -6.317662401051249e-03
-1.477121202600162e-02 -7.385744348191836e-03 -9.519646067945420e-03
-1.349369191452104e-02 -9.718737721239323e-03 -8.702062253263199e-03
-1.147251198405824e-02 -1.117688519164950e-02 -7.164368163076640e-03
-8.612970906735490e-03 -1.072996154071693e-02 -5.083501373436494e-03
-4.820367354675240e-03 -7.347741549735387e-03 -2.636399460393735e-03
0.000000000000000e+00 0.000000000000000e+00 0.000000000000000e+00
-1.516997567414691e-02 -5.083845144167709e-03 -6.317662401051249e-03
-1.539298700822345e-02 -4.324807547866460e-03 -7.639426262659788e-03
-1.549849272217130e-02 -4.267122838882975e-03 -8.601930730547713e-03
-1.547288244637512e-02 -4.762728193517640e-03 -9.230605076541720e-03
-1.530254581121948e-02 -5.663560788069177e-03 -9.550878572468058e-03
-1.497387244708892e-02 -6.821557798837530e-03 -9.588180490152864e-03
-1.497387244708887e-02 -6.821557798837530e-03 -9.588180490152864e-03
-1.493615205829174e-02 -6.933064745431539e-03 -9.578552318242006e-03
-1.489703567302114e-02 -7.045344042090784e-03 -9.566866384263184e-03
-1.485651344004008e-02 -7.158288520388245e-03 -9.553141094019724e-03
-1.481457550811255e-02 -7.271791011897455e-03 -9.537394853312731e-03
-1.477121202600168e-02 -7.385744348191836e-03 -9.519646067945420e-03
-5.551115123125783e-17 -5.551115123125783e-17 -4.440892098500626e-16
0.000000000000000e+00 -5.551115123125783e-17 -8.881784197001252e-16
-1.110223024625157e-16 -1.110223024625157e-16 -4.440892098500626e-16
-1.110223024625157e-16 -5.551115123125783e-17 -8.881784197001252e-16
-1.110223024625157e-16 -5.551115123125783e-17 -8.881784197001252e-16
-1.110223024625157e-16 5.551115123125783e-17 -4.440892098500626e-16
-2.220446049250313e-16 1.110223024625157e-16 -8.881784197001252e-16
-2.220446049250313e-16 1.110223024625157e-16 -1.332267629550188e-15
0.000000000000000e+00 1.665334536937735e-16 -8.881784197001252e-16
-2.220446049250313e-16 1.665334536937735e-16 -1.332267629550188e-15
-2.220446049250313e-16 2.220446049250313e-16 -8.881784197001252e-16
-2.220446049250313e-16 2.220446049250313e-16 -8.881784197001252e-16
-2.220446049250313e-16 5.551115123125783e-17 -8.881784197001252e-16
-2.220446049250313e-16 5.551115123125783e-17 -8.881784197001252e-16
-2.220446049250313e-16 1.110223024625157e-16 -8.881784197001252e-16
0.000000000000000e+00 1.110223024625157e-16 -8.881784197001252e-16
-2.220446049250313e-16 1.110223024625157e-16 -8.881784197001252e-16
-2.220446049250313e-16 1.110223024625157e-16 -8.881784197001252e-16
0.000000000000000e+00 0.000000000000000e+00 0.000000000000000e+00
-2.775557561562891e-17 0.000000000000000e+00 0.000000000000000e+00
-5.551115123125783e-17 -5.551115123125783e-17 0.000000000000000e+00
-1.110223024625157e-16 0.000000000000000e+00 -4.440892098500626e-16
-1.110223024625157e-16 -5.551115123125783e-17 -8.881784197001252e-16
-5.551115123125783e-17 0.000000000000000e+00 -4.440892098500626e-16
0.000000000000000e+00 6.661338147750939e-16 -1.332267629550188e-15
4.440892098500626e-16 8.326672684688674e-16 -1.332267629550188e-15
2.220446049250313e-16 9.992007221626409e-16 -1.332267629550188e-15
4.440892098500626e-16 1.054711873393899e-15 -1.776356839400250e-15
0.000000000000000e+00 1.221245327087672e-15 -1.332267629550188e-15
4.440892098500626e-16 1.498801083243961e-15 -1.332267629550188e-15
-2.220446049250313e-16 2.220446049250313e-16 -8.881784197001252e-16
-4.440892098500626e-16 3.330669073875470e-16 -8.881784197001252e-16
-2.220446049250313e-16 4.440892098500626e-16 -4.440892098500626e-16
-2.220446049250313e-16 4.440892098500626e-16 -1.332267629550188e-15
-4.440892098500626e-16 6.106226635438361e-16 -1.776356839400250e-15
0.000000000000000e+00 6.661338147750939e-16 -8.881784197001252e-16
5.790155638744077e-04 5.216540911986978e-04 3.502189673643130e-05
5.621806608971935e-04 5.124602352868379e-04 3.866262948815091e-05
5.454736605846611e-04 5.035326125334416e-04 4.223952057635927e-05
5.289298701792733e-04 4.948953178895987e-04 4.573934547291714e-05
5.125845969236043e-04 4.865724463062326e-04 4.914887964257986e-05
4.964731480603390e-04 4.785880927339337e-04 5.245489855987273e-05
8.478442444804779e-04 8.046179341914678e-04 4.327280161131597e-05
9.630900563218914e-04 8.305496217898556e-04 -1.875949103524732e-05
9.628314986992459e-04 7.940645083728548e-04 -3.899002556373432e-05
8.780671670952644e-04 7.163171668574941e-04 -2.902950425553996e-05
7.397956569927810e-04 6.184621701603721e-04 -4.886293947237164e-07
5.790155638742966e-04 5.216540911989198e-04 3.502189673731948e-05
4.964731480603390e-04 4.785880927340447e-04 5.245489855987273e-05
4.272397975885189e-04 4.472585322642386e-04 6.579914028570499e-05
3.668562836186551e-04 4.256563544428049e-04 7.550022095159648e-05
3.186259120651069e-04 4.160358557867561e-04 8.032086832443497e-05
2.858519888413458e-04 4.206513328124384e-04 7.902381016844373e-05
2.718378198611759e-04 4.417570820365313e-04 7.037177424784602e-05
2.718378198611759e-04 4.417570820365313e-04 7.037177424784602e-05
2.659421403453655e-04 4.707096319767068e-04 5.644298339824161e-05
2.570674632106362e-04 4.850629821916419e-04 4.549796669017780e-05
2.454979059851592e-04 4.862602955444384e-04 3.715258765435436e-05
2.315175861979935e-04 4.757447348981980e-04 3.102270982147104e-05
2.154106213770324e-04 4.549594631163556e-04 2.672419672222759e-05
2.154106213770324e-04 4.549594631163556e-04 2.672419672222759e-05
2.138700866929910e-04 4.526399959922101e-04 2.641475745956967e-05
2.123149041863837e-04 4.502504185389666e-04 2.611670693486445e-05
2.107452795022668e-04 4.477917753236138e-04 2.582976710741036e-05
2.091614182864188e-04 4.452651109129180e-04 2.555365994272307e-05
2.075635261836184e-04 4.426714698733125e-04 2.528810739654830e-05
2.075635261837849e-04 4.426714698733125e-04 2.528810739477194e-05
1.706442739342617e-04 3.735879192070524e-04 2.162953700590720e-05
1.294513975769740e-04 2.847374298061700e-04 1.994427323825931e-05
8.596179472597498e-05 1.861615687512863e-04 1.755948392734297e-05
4.215236299559555e-05 8.790190312246704e-05 1.180233690245558e-05
0.000000000000000e+00 0.000000000000000e+00 0.000000000000000e+00
0.000000000000000e+00 0.000000000000000e+00 0.000000000000000e+00
-2.775557561562891e-17 0.000000000000000e+00 0.000000000000000e+00
0.000000000000000e+00 5.551115123125783e-17 0.000000000000000e+00
-5.551115123125783e-17 1.110223024625157e-16 8.881784197001252e-16
-1.665334536937735e-16 1.665334536937735e-16 8.881784197001252e-16
-2.220446049250313e-16 3.330669073875470e-16 8.881784197001252e-16
-2.220446049250313e-16 3.330669073875470e-16 8.881784197001252e-16
-3.330669073875470e-16 4.440892098500626e-16 8.881784197001252e-16
-5.551115123125783e-16 5.551115123125783e-16 0.000000000000000e+00
-4.440892098500626e-16 6.661338147750939e-16 8.881784197001252e-16
-5.551115123125783e-16 7.216449660063518e-16 8.881784197001252e-16
-4.440892098500626e-16 7.216449660063518e-16 8.881784197001252e-16
-4.440892098500626e-16 7.216449660063518e-16 8.881784197001252e-16
-4.440892098500626e-16 6.661338147750939e-16 0.000000000000000e+00
-4.440892098500626e-16 6.661338147750939e-16 0.000000000000000e+00
-2.220446049250313e-16 7.216449660063518e-16 1.776356839400250e-15
-2.220446049250313e-16 6.661338147750939e-16 0.000000000000000e+00
-2.220446049250313e-16 6.661338147750939e-16 0.000000000000000e+00
-4.440892098500626e-16 7.216449660063518e-16 8.881784197001252e-16
-4.440892098500626e-16 7.216449660063518e-16 8.881784197001252e-16
-4.440892098500626e-16 7.216449660063518e-16 0.000000000000000e+00
-4.440892098500626e-16 7.771561172376096e-16 8.881784197001252e-16
-4.440892098500626e-16 7.216449660063518e-16 0.000000000000000e+00
-2.220446049250313e-16 7.216449660063518e-16 1.776356839400250e-15
-2.220446049250313e-16 6.661338147750939e-16 0.000000000000000e+00
0.000000000000000e+00 5.551115123125783e-16 0.000000000000000e+00
0.000000000000000e+00 4.440892098500626e-16 0.000000000000000e+00
6.661338147750939e-16 3.885780586188048e-16 0.000000000000000e+00
8.881784197001252e-16 1.110223024625157e-16 -1.776356839400250e-15
4.440892098500626e-16 0.000000000000000e+00 -1.776356839400250e-15
4.440892098500626e-16 0.000000000000000e+00 -1.776356839400250e-15
4.440892098500626e-16 -2.220446049250313e-16 -1.776356839400250e-15
6.661338147750939e-16 -6.106226635438361e-16 -1.776356839400250e-15
6.661338147750939e-16 -8.326672684688674e-16 -3.552713678800501e-15
2.220446049250313e-16 -1.054711873393899e-15 -3.552713678800501e-15
0.000000000000000e+00 -1.276756478318930e-15 0.000000000000000e+00
        </DataArray>
        <DataArray type="Float64" Name="lambda" NumberOfComponents="3" format="ascii">
9.443028499184028e-03 1.487815115384354e-02 -2.146053670679954e-03
3.183427346812459e-03 2.231833126495321e-03 -2.087795781067167e-03
-1.128471914599340e-03 -6.182613577408855e-03 -1.905894109320122e-03
-3.492669285051368e-03 -1.036518895786899e-02 -1.600348655438819e-03
-3.909164764543627e-03 -1.031589301488508e-02 -1.171159419423259e-03
-2.377958353076115e-03 -6.034725748457124e-03 -6.183264012734409e-04
-2.377958353076114e-03 -6.034725748457122e-03 -6.183264012734407e-04
-2.105724784848140e-03 -5.343575500661898e-03 -5.534614714038553e-04
-1.812248812110610e-03 -4.606270796221005e-03 -4.872480337121139e-04
-1.497530434863523e-03 -3.822811635134442e-03 -4.196860881982164e-04
-1.161569653106881e-03 -2.993198017402213e-03 -3.507756348621631e-04
-8.043664668406819e-04 -2.117429943024314e-03 -2.805166737039534e-04
-8.043664668406811e-04 -2.117429943024312e-03 -2.805166737039533e-04
1.084342665778184e-03 2.438667460318761e-03 5.539540657215785e-05
3.410836254929569e-03 7.945961500091948e-03 4.190988681764443e-04
6.175114300613476e-03 1.440445217629525e-02 8.105937111089062e-04
9.377176802829904e-03 2.181413948892868e-02 1.229879935369544e-03
1.301702376157886e-02 3.017502343799222e-02 1.676957540958357e-03
-8.303722427911372e-03 -2.072280237583112e-02 -2.340380334095086e-03
-4.212611184535104e-03 -1.309576867826352e-02 -4.637262785913188e-04
5.877743130741270e-03 7.742728684253250e-03 3.117141354119571e-03
2.196734051791775e-02 4.179268971171920e-02 8.402222564037583e-03
4.405618097699432e-02 8.905411440413430e-02 1.539151735116272e-02
7.214426450797100e-02 1.495270027614986e-01 2.408502571549497e-02
1.301702376157886e-02 3.017502343799222e-02 1.676957540958357e-03
5.442645303195869e-03 1.277072286595806e-02 -1.004541309998895e-04
-4.856983052695437e-04 -1.008698808805749e-03 -1.410274324138934e-03
-4.768007063817382e-03 -1.116324158629919e-02 -2.252503038458778e-03
-7.404280972447642e-03 -1.769290546652227e-02 -2.627140273959419e-03
-8.394520031160325e-03 -2.059769044947498e-02 -2.534186030640858e-03
-8.394520031160323e-03 -2.059769044947497e-02 -2.534186030640859e-03
-8.402899409811870e-03 -2.068115649165845e-02 -2.502963834490269e-03
-8.398009338812743e-03 -2.073540070538580e-02 -2.467972166760396e-03
-8.379849818162954e-03 -2.076042309065703e-02 -2.429211027451242e-03
-8.348420847862498e-03 -2.075622364747214e-02 -2.386680416562805e-03
-8.303722427911374e-03 -2.072280237583112e-02 -2.340380334095087e-03
2.032757386832056e-15 -1.026190465928087e-16 -2.766916539598477e-15
1.961157093062432e-15 4.599334681117263e-16 -8.791836520372989e-16
1.551265800311859e-15 8.044150565249213e-16 -5.285763465653785e-16
8.030835085803364e-16 9.308257186467765e-16 -1.715094623182717e-15
-2.833897821321347e-16 8.391654544772917e-16 -4.438738481889313e-15
-1.708154071825553e-15 5.294342640164675e-16 -8.699507922685163e-15
-2.627883692218930e-15 2.685757862378425e-16 -1.167144335887056e-14
-2.973567282054295e-15 1.619472758076217e-16 -1.281966417538626e-14
-3.331580320695509e-15 4.737089112164945e-17 -1.402390750278643e-14
-3.701922808142573e-15 -7.515336782007469e-17 -1.528417334107108e-14
-4.084594744395485e-15 -2.056255010175503e-16 -1.660046169024021e-14
-4.479596129454247e-15 -3.440455084707778e-16 -1.797277255029381e-14
-1.708154071825555e-15 5.294342640164672e-16 -8.699507922685168e-15
-1.884048110969831e-15 4.824530169542717e-16 -9.257308880365195e-15
-2.063968092581306e-15 4.328765456453119e-16 -9.833402902823744e-15
-2.247914016659976e-15 3.807048500895882e-16 -1.042778999006081e-14
-2.435885883205846e-15 3.259379302870999e-16 -1.104047014207640e-14
-2.627883692218913e-15 2.685757862378475e-16 -1.167144335887051e-14
-1.063751427898283e-15 -4.533538368323654e-15 -2.568910391073182e-14
-1.143718625669778e-17 -3.368223718324632e-15 -1.913714569143134e-14
8.243708160371289e-16 -2.342474461152037e-15 -1.356894784466777e-14
1.443672578983197e-15 -1.456290596805868e-15 -8.984510370441097e-15
1.846468102581506e-15 -7.096721252861244e-16 -5.383833268751333e-15
2.032757386832057e-15 -1.026190465928080e-16 -2.766916539598474e-15
-1.146401138371740e-15 -1.349971419727151e-15 -3.670516601705566e-15
5.016467854406699e-16 -1.323879472816713e-15 6.120460975914858e-16
2.458897597159202e-15 -1.158454481405555e-15 4.981810511040845e-15
4.725351296783857e-15 -8.536964454936773e-16 9.438776638642517e-15
7.301007884314633e-15 -4.096053650810787e-16 1.398294448039650e-14
1.018586735975154e-14 1.738187598322401e-16 1.861431403630279e-14
-4.479596129454247e-15 -3.440455084707778e-16 -1.797277255029381e-14
-4.115975961385659e-15 -6.817770743327189e-16 -1.519777904044540e-14
-3.600846378243112e-15 -9.512354483893268e-16 -1.238005669066237e-14
-2.934207380026611e-15 -1.152420630640601e-15 -9.519605500944719e-15
-2.116058966736152e-15 -1.285332621086543e-15 -6.616425471292449e-15
-1.146401138371737e-15 -1.349971419727151e-15 -3.670516601705558e-15
-1.855388134025765e-04 -7.944817021452466e-05 5.663630586875270e-05
-1.751060090036766e-04 -6.658151694372599e-05 5.866684760076209e-05
-1.637349510816195e-04 -5.291168950729299e-05 6.065850920664502e-05
-1.514256396364051e-04 -3.843868790522563e-05 6.261129068640150e-05
-1.381780746680335e-04 -2.316251213752390e-05 6.452519204003156e-05
-1.239922561765047e-04 -7.083162204187812e-06 6.640021326753516e-05
4.127754588147929e-04 2.442897367222820e-04 -8.607239327465775e-05
1.210569258017976e-04 3.225714902584031e-05 -5.040086781933257e-05
-8.463376792643715e-05 -1.061329355160613e-04 -1.829423517732893e-05
-2.042966223699110e-04 -1.708805169034226e-04 1.024750465135315e-05
-2.379316375286241e-04 -1.619855951362437e-04 3.522435166671371e-05
-1.855388134025765e-04 -7.944817021452466e-05 5.663630586875271e-05
-1.239922561765039e-04 -7.083162204186917e-06 6.640021326753527e-05
-4.779479308567946e-05 7.601185375114842e-05 7.442337789743111e-05
4.773912546665436e-05 1.756594763296526e-04 8.164526248027529e-05
1.626094994804974e-04 2.918597055313253e-04 8.806586701606779e-05
2.968163289558496e-04 4.246125413561667e-04 9.368519150480864e-05
4.503596138927111e-04 5.739179838041768e-04 9.850323594649780e-05
4.503596138927111e-04 5.739179838041768e-04 9.850323594649780e-05
2.950761001291937e-04 3.353797909604248e-04 3.753122193207460e-05
1.607656532783853e-04 1.318691705132488e-04 -1.264613821519225e-05
4.742827334028576e-05 -3.661387753735131e-05 -5.202884449530272e-05
-4.493603968510491e-05 -1.700693531913756e-04 -8.061689690825684e-05
-1.163272857977867e-04 -2.684972564488241e-04 -9.841029545405460e-05
-1.163272857977867e-04 -2.684972564488241e-04 -9.841029545405460e-05
-1.217111183511379e-04 -2.756209964895797e-04 -9.947977447729062e-05
-1.269258772937556e-04 -2.824623630384198e-04 -1.004622327937538e-04
-1.319715626256397e-04 -2.890213560953443e-04 -1.013576704034440e-04
-1.368481743467903e-04 -2.952979756603534e-04 -1.021660873063614e-04
-1.415557124572074e-04 -3.012922217334469e-04 -1.028874835025058e-04
-1.415557124572071e-04 -3.012922217334466e-04 -1.028874835025058e-04
-2.016340779790937e-04 -3.619131731451007e-04 -9.762983813921059e-05
-1.852726728740238e-04 -2.948704113403104e-04 -5.302931225981803e-05
-9.247149714199747e-05 -1.001639363190753e-04 3.091409413567192e-05
7.676944921698521e-05 2.222062519186041e-04 1.542003810472591e-04
3.224501662029243e-04 6.722401533727282e-04 3.168295484749437e-04
4.407643965656733e-16 -2.963583180021336e-15 -5.296032905038129e-15
6.369591757406875e-16 -3.113849494278640e-15 -2.300255291703318e-14
7.237106881301900e-16 -3.240320564796777e-15 -3.760287773898394e-14
7.010189337341808e-16 -3.342996391575749e-15 -4.909700737089039e-14
5.688839125526599e-16 -3.421876974615553e-15 -5.748494181275256e-14
3.273056245856273e-16 -3.476962313916191e-15 -6.276668106457043e-14
3.273056245856275e-16 -3.476962313916191e-15 -6.276668106457043e-14
-1.285718292903501e-16 -3.512356926533788e-15 -6.500076814334296e-14
-7.554543875187283e-16 -3.510571470808928e-15 -6.238142523767017e-14
-1.553342050099507e-15 -3.471605946741613e-15 -5.490865234755208e-14
-2.522234817032687e-15 -3.395460354331842e-15 -4.258244947298868e-14
-3.662132688318266e-15 -3.282134693579614e-15 -2.540281661397998e-14
-4.355971695150231e-15 -3.204649758909411e-15 -1.398644720985846e-14
-4.610835169133046e-15 -3.174916672425581e-15 -9.649573934789097e-15
-4.871931143200118e-15 -3.143828510723648e-15 -5.135811186732695e-15
-5.139259617351448e-15 -3.111385273803613e-15 -4.451589656892409e-16
-5.412820591587034e-15 -3.077586961665475e-15 4.422382728341234e-15
-5.692614065906875e-15 -3.042433574309233e-15 9.466813895358741e-15
-3.662132688318266e-15 -3.282134693579614e-15 -2.540281661397998e-14
-3.796830285548026e-15 -3.267522653726779e-15 -2.323506238898332e-14
-3.933562984846104e-15 -3.252468140333341e-15 -2.100954833607280e-14
-4.072330786212502e-15 -3.236971153399300e-15 -1.872627445524841e-14
-4.213133689647218e-15 -3.221031692924655e-15 -1.638524074651017e-14
-4.355971695150254e-15 -3.204649758909408e-15 -1.398644720985807e-14
-5.692614065906875e-15 -3.042433574309233e-15 9.466813895358741e-15
-4.492568877289021e-15 -1.587129047639718e-15 -2.589316747294995e-14