<?xml version="1.0" ?> 
<!-- 
# vtk DataFile Version 3.0
-->
<VTKFile type="UnstructuredGrid" version="0.1" compressor="vtkZLibDataCompressor" byte_order="LittleEndian">
  <UnstructuredGrid>
    <FieldData>
      <DataArray type="Float64" Name="TIME" NumberOfTuples="1" format="ascii">
1.000000000000000e+00 
      </DataArray>
    </FieldData>

    <Piece NumberOfPoints="24" NumberOfCells="0" >
      <Points>
        <DataArray type="Float64" NumberOfComponents="3" format="ascii">
1.000000000000000e+00 0.000000000000000e+00 -7.079632679490000e-02
7.071067811870000e-01 7.071067811870000e-01 7.146018366030000e-01
9.229551825145283e-01 3.823005540599319e-01 3.219027549043411e-01
7.071067811870000e-01 7.071067811870000e-01 7.146018366030000e-01
0.000000000000000e+00 1.000000000000000e+00 1.500000000000000e+00
3.823005540591954e-01 9.229551825132056e-01 1.107300918301373e+00
1.000000000000000e-01 3.000000000000000e-01 2.500000000000000e+00
1.150000000000000e+00 3.000000000000000e-01 3.050000000000000e+00
6.250000000000000e-01 3.000000000000000e-01 2.775000000000000e+00
1.150000000000000e+00 3.000000000000000e-01 3.050000000000000e+00
2.200000000000000e+00 3.000000000000000e-01 3.600000000000000e+00
1.675000000000000e+00 3.000000000000000e-01 3.325000000000000e+00
1.000000000000000e+00 0.000000000000000e+00 4.929203673210000e+00
7.071067811870000e-01 7.071067811870000e-01 5.714601836600000e+00
9.229551825141720e-01 3.823005540597842e-01 5.321902754905291e+00
7.071067811870000e-01 7.071067811870000e-01 5.714601836600000e+00
0.000000000000000e+00 1.000000000000000e+00 6.500000000000000e+00
3.823005540592515e-01 9.229551825133410e-01 6.107300918299872e+00
1.000000000000000e-01 3.000000000000000e-01 7.500000000000000e+00
1.150000000000000e+00 3.000000000000000e-01 8.050000000000001e+00
6.250000000000000e-01 3.000000000000000e-01 7.775000000000000e+00
1.150000000000000e+00 3.000000000000000e-01 8.050000000000001e+00
2.200000000000000e+00 3.000000000000000e-01 8.600000000000000e+00
1.675000000000000e+00 3.000000000000000e-01 8.324999999999999e+00
        </DataArray>
      </Points>

      <Cells>
        <DataArray type="Int32" Name="connectivity" format="ascii">

        </DataArray>
        <DataArray type="Int32" Name="offsets" format="ascii">

        </DataArray>
        <DataArray type="UInt8" Name="types" format="ascii">

        </DataArray>
      </Cells>

  <PointData>
        <DataArray type="Float64" Name="displacement" NumberOfComponents="3" format="ascii">
-3.720200327369827e-02 -3.228133965669629e-02 2.343838970040840e-02
-1.516997567414691e-02 -5.083845144167709e-03 -6.317662401051249e-03
-1.590464559312676e-02 -1.004733785071182e-02 -6.218269313797986e-04
-1.516997567414691e-02 -5.083845144167709e-03 -6.317662401051249e-03
0.000000000000000e+00 0.000000000000000e+00 0.000000000000000e+00
-1.337261149870123e-02 -9.867064207698117e-03 -8.612152135378359e-03
0.000000000000000e+00 0.000000000000000e+00 0.000000000000000e+00
-2.220446049250313e-16 2.220446049250313e-16 -8.881784197001252e-16
-2.220446049250313e-16 -5.551115123125783e-17 -4.440892098500626e-16
-2.220446049250313e-16 2.220446049250313e-16 -8.881784197001252e-16
4.440892098500626e-16 1.831867990631508e-15 -1.332267629550188e-15
0.000000000000000e+00 9.436895709313831e-16 -1.776356839400250e-15
6.571822678889117e-04 7.271671190423605e-04 1.284235246750143e-04
2.718378198611759e-04 4.417570820365313e-04 7.037177424784602e-05
8.059101369123356e-04 6.631088410660180e-04 -1.473226460113608e-05
2.718378198611759e-04 4.417570820365313e-04 7.037177424784602e-05
0.000000000000000e+00 0.000000000000000e+00 0.000000000000000e+00
1.677615747898709e-04 3.676567951740317e-04 2.147228613225138e-05
0.000000000000000e+00 0.000000000000000e+00 0.000000000000000e+00
-2.220446049250313e-16 6.661338147750939e-16 0.000000000000000e+00
-3.330669073875470e-16 3.885780586188048e-16 8.881784197001252e-16
-2.220446049250313e-16 6.661338147750939e-16 0.000000000000000e+00
-1.332267629550188e-15 -1.498801083243961e-15 1.776356839400250e-15
4.440892098500626e-16 -4.996003610813204e-16 -1.776356839400250e-15
        </DataArray>
        <DataArray type="Float64" Name="lambda" NumberOfComponents="3" format="ascii">
1.569602017658242e-02 2.771803413190040e-02 -2.105450759297162e-03
1.301702376157886e-02 3.017502343799222e-02 1.676957540958357e-03
-3.964427683178916e-03 -1.086033375984172e-02 -1.377294978024467e-03
1.301702376157886e-02 3.017502343799222e-02 1.676957540958357e-03
7.214426450797100e-02 1.495270027614986e-01 2.408502571549497e-02
-3.679705379401817e-03 -1.202299323899494e-02 -2.602521559557939e-04
-1.063751427898283e-15 -4.533538368323654e-15 -2.568910391073182e-14
-4.479596129454247e-15 -3.440455084707778e-16 -1.797277255029381e-14
1.890399051029235e-15 5.664980145548598e-16 -6.474263023484111e-16
-4.479596129454247e-15 -3.440455084707778e-16 -1.797277255029381e-14
1.688319497434213e-14 1.758666143160638e-15 2.813865829057021e-14
1.940597123488448e-15 -1.212873202180280e-15 3.881194246976895e-15
7.008815492229827e-04 4.614419761774169e-04 -1.164555390428696e-04
4.503596138927111e-04 5.739179838041768e-04 9.850323594649780e-05
-2.335955102452670e-04 -1.750341354487148e-04 2.455681468782748e-05
4.503596138927111e-04 5.739179838041768e-04 9.850323594649780e-05
3.224501662029243e-04 6.722401533727282e-04 3.168295484749437e-04
-2.030245535727836e-04 -3.613397860800165e-04 -9.570778045924760e-05
4.407643965656733e-16 -2.963583180021336e-15 -5.296032905038129e-15
-5.692614065906875e-15 -3.042433574309233e-15 9.466813895358741e-15
-2.692607403144381e-16 -3.515396194009678e-15 -6.480094147796643e-14
-5.692614065906875e-15 -3.042433574309233e-15 9.466813895358741e-15
-5.627731658114060e-14 -1.512452883118154e-14 1.125546331622812e-13
-1.261388130267492e-14 0.000000000000000e+00 -1.086734389153531e-13
        </DataArray>
        <DataArray type="Int32" Name="uid_0_pair_beam_id" format="ascii">
267
267
267
268
268
268
269
269
269
270
270
270
271
271
271
272
272
272
273
273
273
274
274
274
        </DataArray>
        <DataArray type="Int32" Name="uid_1_pair_solid_id" format="ascii">
8
8
8
8
8
8
16
16
16
16
16
16
18
18
18
18
18
18
26
26
26
26
26
26
        </DataArray>
      </PointData>

    </Piece>
  </UnstructuredGrid>
</VTKFile>
