<?xml version="1.0" ?> 
<!-- 
# vtk DataFile Version 3.0
-->
<VTKFile type="UnstructuredGrid" version="0.1" compressor="vtkZLibDataCompressor" byte_order="LittleEndian">
  <UnstructuredGrid>
    <FieldData>
      <DataArray type="Float64" Name="TIME" NumberOfTuples="1" format="ascii">
1.000000000000000e+00 
      </DataArray>
    </FieldData>

    <Piece NumberOfPoints="120" NumberOfCells="20" >
      <Points>
        <DataArray type="Float64" NumberOfComponents="3" format="ascii">
9.973931072026406e-01 7.070273512785413e-02 1.000000000000000e+01
9.866136483990291e-01 1.604856085406817e-01 1.009053228542930e+01
9.677380497720580e-01 2.489458430506831e-01 1.018107427169750e+01
9.410473093875842e-01 3.354050493162016e-01 1.027162216241490e+01
9.068224253114635e-01 4.191848379955807e-01 1.036217216119180e+01
8.653443956095521e-01 4.996068197471639e-01 1.045272047163852e+01
8.653443956095521e-01 4.996068197471640e-01 1.045272047163852e+01
8.606057705830016e-01 5.077844949057552e-01 1.046217651424412e+01
8.557914246224535e-01 5.159173770349559e-01 1.047163249270714e+01
8.509016777832743e-01 5.240046934527594e-01 1.048108840270351e+01
8.459368501208309e-01 5.320456714771585e-01 1.049054423990915e+01
8.408972616904897e-01 5.400395384261464e-01 1.050000000000000e+01
8.408972616904891e-01 5.400395384261474e-01 1.050000000000000e+01
8.170876849891512e-01 5.757158235680651e-01 1.054292534228490e+01
7.917739045678236e-01 6.103329816750592e-01 1.058584860164233e+01
7.649858644468163e-01 6.438187214871802e-01 1.062876937351733e+01
7.367535086464384e-01 6.761007517444773e-01 1.067168725335488e+01
7.071067811870000e-01 7.071067811870000e-01 1.071460183660000e+01
7.071067811870000e-01 7.071067811870000e-01 1.071460183660000e+01
6.690967767716192e-01 7.430949925337622e-01 1.076697002744292e+01
6.292104186336189e-01 7.769672706543244e-01 1.081934299447397e+01
5.875790665592658e-01 8.086692045436573e-01 1.087172000257996e+01
5.443340803348262e-01 8.381463831967312e-01 1.092410031664769e+01
4.996068197465661e-01 8.653443956085163e-01 1.097648320156397e+01
4.996068197465658e-01 8.653443956085163e-01 1.097648320156397e+01
4.955229120705004e-01 8.676730276522646e-01 1.098118653378206e+01
4.914282091247535e-01 8.699828082656245e-01 1.098588988026678e+01
4.873228059880311e-01 8.722736980657068e-01 1.099059324048607e+01
4.832067977390389e-01 8.745456576696220e-01 1.099529661390783e+01
4.790802794564825e-01 8.767986476944808e-01 1.100000000000000e+01
4.790802794564811e-01 8.767986476944815e-01 1.100000000000000e+01
3.890256016956313e-01 9.201415524538572e-01 1.110000948404963e+01
2.951762298468827e-01 9.545117333406207e-01 1.120001934101234e+01
1.984461689329109e-01 9.795305970782481e-01 1.130002445595023e+01
9.974942397639149e-02 9.948195503902159e-01 1.140001971392541e+01
7.410977078995740e-17 1.000000000000000e+00 1.150000000000000e+01
1.000000000000000e-01 3.000000000000000e-01 1.250000000000000e+01
1.800000000000127e-01 3.000000000000000e-01 1.254190476190473e+01
2.600000000000177e-01 3.000000000000000e-01 1.258380952380947e+01
3.400000000000163e-01 3.000000000000000e-01 1.262571428571423e+01
4.200000000000100e-01 3.000000000000000e-01 1.266761904761900e+01
5.000000000000001e-01 3.000000000000000e-01 1.270952380952378e+01
1.000000000000000e+00 3.000000000000000e-01 1.297142857142863e+01
1.010909090909073e+00 2.999999999999999e-01 1.297714285714290e+01
1.021818181818145e+00 3.000000000000000e-01 1.298285714285718e+01
1.032727272727218e+00 3.000000000000000e-01 1.298857142857145e+01
1.043636363636291e+00 3.000000000000000e-01 1.299428571428572e+01
1.054545454545364e+00 3.000000000000000e-01 1.300000000000000e+01
1.054545454545370e+00 3.000000000000000e-01 1.300000000000000e+01
1.073636363636295e+00 3.000000000000000e-01 1.301000000000000e+01
1.092727272727220e+00 3.000000000000000e-01 1.302000000000000e+01
1.111818181818146e+00 3.000000000000000e-01 1.303000000000000e+01
1.130909090909073e+00 3.000000000000000e-01 1.304000000000000e+01
1.150000000000000e+00 3.000000000000000e-01 1.305000000000000e+01
5.000000000000000e-01 3.000000000000000e-01 1.270952380952378e+01
5.999999999999960e-01 3.000000000000000e-01 1.276190476190475e+01
6.999999999999913e-01 3.000000000000000e-01 1.281428571428573e+01
7.999999999999886e-01 3.000000000000000e-01 1.286666666666671e+01
8.999999999999907e-01 2.999999999999999e-01 1.291904761904767e+01
1.000000000000000e+00 3.000000000000000e-01 1.297142857142863e+01
1.500000000000000e+00 3.000000000000000e-01 1.323333333333329e+01
1.599999999999999e+00 3.000000000000000e-01 1.328571428571426e+01
1.699999999999996e+00 3.000000000000000e-01 1.333809523809524e+01
1.799999999999993e+00 3.000000000000000e-01 1.339047619047622e+01
1.899999999999993e+00 3.000000000000000e-01 1.344285714285720e+01
2.000000000000000e+00 3.000000000000000e-01 1.349523809523816e+01
1.150000000000000e+00 3.000000000000000e-01 1.305000000000000e+01
1.220000000000010e+00 3.000000000000000e-01 1.308666666666664e+01
1.290000000000014e+00 3.000000000000000e-01 1.312333333333329e+01
1.360000000000013e+00 3.000000000000000e-01 1.315999999999995e+01
1.430000000000008e+00 2.999999999999999e-01 1.319666666666661e+01
1.500000000000000e+00 3.000000000000000e-01 1.323333333333329e+01
9.099418396092163e-01 4.123520859599071e-01 1.535465927548244e+01
8.922842954237609e-01 4.494116351566335e-01 1.539572377802105e+01
8.731564437274878e-01 4.857289022324833e-01 1.543678764402081e+01
8.525844932065541e-01 5.212406138218787e-01 1.547785051939248e+01
8.305946525471162e-01 5.558834965592417e-01 1.551891205004683e+01
8.072131304353310e-01 5.895942770789949e-01 1.555997188189463e+01
7.282911557660177e-01 6.852367478256445e-01 1.568414612346445e+01
7.241105771358123e-01 6.896638407006590e-01 1.569023740828026e+01
7.199017647365406e-01 6.940645971943973e-01 1.569632862315857e+01
7.156648041944699e-01 6.984388105867640e-01 1.570241976694252e+01
7.113997811358671e-01 7.027862741576633e-01 1.570851083847528e+01
7.071067811870000e-01 7.071067811870000e-01 1.571460183660000e+01
8.072131304353318e-01 5.895942770789941e-01 1.555997188189463e+01
7.924048381786581e-01 6.095072492977918e-01 1.558480854611072e+01
7.771026932926023e-01 6.290419880367565e-01 1.560964438075337e+01
7.613124970679515e-01 6.481844877409870e-01 1.563447930744495e+01
7.450400507954943e-01 6.669207428555832e-01 1.565931324780786e+01
7.282911557660177e-01 6.852367478256445e-01 1.568414612346445e+01
9.974188365449632e-01 7.035216465623575e-02 1.499964823725036e+01
9.896856895188083e-01 1.408498148485315e-01 1.507064114959732e+01
9.769359111055309e-01 2.106257705826849e-01 1.514164054032042e+01
9.593050065117563e-01 2.793528933510576e-01 1.521264457869325e+01
9.369284809441096e-01 3.467040446460115e-01 1.528365143398939e+01
9.099418396092160e-01 4.123520859599080e-01 1.535465927548244e+01
2.540680715836868e-01 9.663884211005245e-01 1.624282971409468e+01
2.040742312389913e-01 9.783511829326830e-01 1.629427022398971e+01
1.535461056049211e-01 9.877452492031026e-01 1.634570820368322e+01
1.026080929848299e-01 9.945190924473902e-01 1.639714295701975e+01
5.138459168207161e-02 9.986211852011536e-01 1.644857378784383e+01
0.000000000000000e+00 1.000000000000000e+00 1.650000000000000e+01
7.071067811870000e-01 7.071067811870000e-01 1.571460183660000e+01
6.838313695108698e-01 7.296072446419970e-01 1.574698374391793e+01
6.598193240044187e-01 7.513065748860335e-01 1.577936758478894e+01
6.351017039401895e-01 7.721919067471822e-01 1.581175318539972e+01
6.097095685907250e-01 7.922503750535171e-01 1.584414037193693e+01
5.836739772285680e-01 8.114691146331118e-01 1.587652897058727e+01
5.836739772285678e-01 8.114691146331119e-01 1.587652897058727e+01
5.593457432745246e-01 8.282864303983598e-01 1.590612753141416e+01
5.345298143755571e-01 8.443819496070234e-01 1.593572699367424e+01
5.092498921899732e-01 8.597458547107798e-01 1.596532722472874e+01
4.835296783760801e-01 8.743683281613056e-01 1.599492809193889e+01
4.573928745921857e-01 8.882395524102780e-01 1.602452946266590e+01
4.573928745921856e-01 8.882395524102780e-01 1.602452946266590e+01
4.181330855877529e-01 9.073065334328176e-01 1.606818960163606e+01
3.780946642285054e-01 9.246864103280585e-01 1.611185012183434e+01
3.373536570706244e-01 9.403476835810543e-01 1.615551059769042e+01
2.959861106702907e-01 9.542588536768586e-01 1.619917060363398e+01
2.540680715836858e-01 9.663884211005248e-01 1.624282971409469e+01
        </DataArray>
      </Points>

      <Cells>
        <DataArray type="Int32" Name="connectivity" format="ascii">
0 1 2 3 4 5 6 7 8 9 10 11 12 13 14 15 16 17 18 19 20 21 22 23 24 25 26 27 28 29 30 31 32 33 34 35 36 37 38 39 40 41 42 43 44 45 46 47 48 49 50 51 52 53 54 55 56 57 58 59 60 61 62 63 64 65 66 67 68 69 70 71 72 73 74 75 76 77 78 79 80 81 82 83 84 85 86 87 88 89 90 91 92 93 94 95 96 97 98 99 100 101 102 103 104 105 106 107 108 109 110 111 112 113 114 115 116 117 118 119 
        </DataArray>
        <DataArray type="Int32" Name="offsets" format="ascii">
6 12 18 24 30 36 42 48 54 60 66 72 78 84 90 96 102 108 114 120 
        </DataArray>
        <DataArray type="UInt8" Name="types" format="ascii">
4 4 4 4 4 4 4 4 4 4 4 4 4 4 4 4 4 4 4 4 
        </DataArray>
      </Cells>

  <PointData>
        <DataArray type="Float64" Name="displacement" NumberOfComponents="3" format="ascii">
8.432794340923477e-04 7.879710188902350e-04 4.491897335689998e-05
9.458324167611609e-04 8.070589138682305e-04 -7.752667380955813e-06
9.416982880182667e-04 7.696561901807675e-04 -2.303130626124528e-05
8.594890906168384e-04 6.951439556484029e-04 -1.158917542376514e-05
7.278168673101604e-04 6.029033180912635e-04 1.590149300056964e-05
5.752936608512949e-04 5.123153853296980e-04 4.876846686308056e-05
5.752936608511838e-04 5.123153853296980e-04 4.876846686308056e-05
5.593201025883010e-04 5.037343137442862e-04 5.207920050942505e-05
5.434637784712537e-04 4.954047201929379e-04 5.532001907582185e-05
5.277572774715633e-04 4.873486796586057e-04 5.847876694531351e-05
5.122331885599740e-04 4.795882671247975e-04 6.154328849028445e-05
4.969241007075631e-04 4.721455575742439e-04 6.450142810265902e-05
4.969241007075631e-04 4.721455575743549e-04 6.450142810088266e-05
4.310220370122853e-04 4.429578006039936e-04 7.625965104374188e-05
3.732715407401832e-04 4.228378342284733e-04 8.443766900967375e-05
3.267215993875139e-04 4.138509690556624e-04 8.789821602839254e-05
2.944212004506452e-04 4.180625156934292e-04 8.550402614204700e-05
2.794193314256121e-04 4.375377847494200e-04 7.611783338568046e-05
2.794193314256121e-04 4.375377847494200e-04 7.611783338568046e-05
2.713642515924652e-04 4.638977175518422e-04 6.142751251481116e-05
2.604325278201536e-04 4.760984648006783e-04 4.950667338299297e-05
2.469392126850378e-04 4.755764299680942e-04 4.003313511979911e-05
2.311993587637007e-04 4.637680165265889e-04 3.268471685480279e-05
2.135280186322808e-04 4.421096279484393e-04 2.713923772290627e-05
2.135280186323918e-04 4.421096279483283e-04 2.713923772290627e-05
2.118576276182171e-04 4.397320720821440e-04 2.671855956037916e-05
2.101744338200984e-04 4.372877301902500e-04 2.630958528193617e-05
2.084786652736814e-04 4.347776419469929e-04 2.591208168745140e-05
2.067705500155559e-04 4.322028470264971e-04 2.552581558745715e-05
2.050503160817563e-04 4.295643851031095e-04 2.515055378360387e-05
2.050503160817563e-04 4.295643851031095e-04 2.515055378360387e-05
1.660234146516615e-04 3.603021773179726e-04 1.934798535963012e-05
1.238127877957185e-04 2.727200998623447e-04 1.617338916304334e-05
8.061058004663058e-05 1.768126877887966e-04 1.338502180026069e-05
3.860893593721215e-05 8.257447615045432e-05 8.741139877699311e-06
2.747433323822988e-20 0.000000000000000e+00 0.000000000000000e+00
0.000000000000000e+00 0.000000000000000e+00 0.000000000000000e+00
-2.775557561562891e-17 0.000000000000000e+00 -1.776356839400250e-15
5.551115123125783e-17 -5.551115123125783e-17 1.776356839400250e-15
5.551115123125783e-17 0.000000000000000e+00 0.000000000000000e+00
5.551115123125783e-17 0.000000000000000e+00 0.000000000000000e+00
2.220446049250313e-16 0.000000000000000e+00 -3.552713678800501e-15
1.110223024625157e-15 -1.387778780781446e-15 -1.776356839400250e-15
8.881784197001252e-16 -1.387778780781446e-15 -3.552713678800501e-15
8.881784197001252e-16 -1.498801083243961e-15 -3.552713678800501e-15
8.881784197001252e-16 -1.554312234475219e-15 -1.776356839400250e-15
1.110223024625157e-15 -1.665334536937735e-15 -1.776356839400250e-15
1.110223024625157e-15 -1.720845688168993e-15 -3.552713678800501e-15
1.110223024625157e-15 -1.720845688168993e-15 -1.776356839400250e-15
1.332267629550188e-15 -1.887379141862766e-15 -3.552713678800501e-15
1.332267629550188e-15 -1.998401444325282e-15 -1.776356839400250e-15
1.332267629550188e-15 -2.164934898019055e-15 -3.552713678800501e-15
1.110223024625157e-15 -2.275957200481571e-15 -3.552713678800501e-15
1.332267629550188e-15 -2.442490654175344e-15 -3.552713678800501e-15
2.220446049250313e-16 0.000000000000000e+00 -1.776356839400250e-15
3.330669073875470e-16 -1.110223024625157e-16 -1.776356839400250e-15
4.440892098500626e-16 -2.220446049250313e-16 -1.776356839400250e-15
7.771561172376096e-16 -4.996003610813204e-16 0.000000000000000e+00
8.881784197001252e-16 -8.326672684688674e-16 0.000000000000000e+00
1.110223024625157e-15 -1.387778780781446e-15 -1.776356839400250e-15
1.332267629550188e-15 -4.829470157119431e-15 -3.552713678800501e-15
6.661338147750939e-16 -5.384581669432009e-15 0.000000000000000e+00
4.440892098500626e-16 -5.828670879282072e-15 0.000000000000000e+00
0.000000000000000e+00 -6.217248937900877e-15 0.000000000000000e+00
-4.440892098500626e-16 -6.550315845288424e-15 -1.776356839400250e-15
-6.661338147750939e-16 -6.827871601444713e-15 1.776356839400250e-15
1.332267629550188e-15 -2.442490654175344e-15 -3.552713678800501e-15
1.554312234475219e-15 -2.997602166487923e-15 -3.552713678800501e-15
1.332267629550188e-15 -3.441691376337985e-15 -3.552713678800501e-15
1.554312234475219e-15 -4.107825191113079e-15 -3.552713678800501e-15
1.110223024625157e-15 -4.385380947269368e-15 -1.776356839400250e-15
8.881784197001252e-16 -4.884981308350689e-15 -1.776356839400250e-15
-8.042704546779023e-03 3.135743559957549e-03 1.428431654623807e-03
-7.325632500853718e-03 3.505211130613528e-03 1.172510970135932e-03
-6.648207900854297e-03 3.877085782332479e-03 9.248357254474371e-04
-6.026545524418614e-03 4.278404925469270e-03 6.580350586702366e-04
-5.476760149183191e-03 4.736205970379825e-03 3.447381079144662e-04
-5.014966552785549e-03 5.277526327418625e-03 -4.242598870796144e-05
-4.318052468294309e-03 7.698717822460233e-03 -1.942014886584076e-03
-4.316206458437777e-03 7.856675117515421e-03 -2.072351025470098e-03
-4.317778451292553e-03 8.018955505271763e-03 -2.206828374596626e-03
-4.322821095367857e-03 8.185647319516876e-03 -2.345536357182709e-03
-4.331387039172685e-03 8.356838894039043e-03 -2.488564396422532e-03
-4.343528931216922e-03 8.532618562625660e-03 -2.636001915526265e-03
-5.014966552785549e-03 5.277526327418403e-03 -4.242598871151415e-05
-4.785126354985736e-03 5.656915858994083e-03 -3.240195728579920e-04
-4.596947842770649e-03 6.082745045456583e-03 -6.487167164195284e-04
-4.453998021006211e-03 6.560998615635749e-03 -1.022575957691174e-03
-4.359843894558901e-03 7.097661298360425e-03 -1.451655834978638e-03
-4.318052468294309e-03 7.698717822460233e-03 -1.942014886584076e-03
-1.351110374626863e-02 -3.958980530032893e-03 8.034979506637896e-03
-1.277660133790459e-02 -1.554005990298174e-03 5.651599553756270e-03
-1.177919294024155e-02 2.181637786551338e-04 3.940768726600652e-03
-1.060219582681166e-02 1.497318686740190e-03 2.760973090683905e-03
-9.328927271146759e-03 2.423248643869946e-03 1.970698711524221e-03
-8.042704546779134e-03 3.135743559957493e-03 1.428431654625584e-03
-7.708113791384752e-03 -1.062799839032902e-02 -4.204910881526303e-03
-7.077921210011384e-03 -1.128840161268463e-02 -3.497053473495271e-03
-6.048150836562294e-03 -1.078746016306020e-02 -2.705701234248181e-03
-4.562665374661434e-03 -8.893517263224959e-03 -1.847786610870372e-03
-2.565327527932697e-03 -5.374916134948560e-03 -9.402420504258657e-04
0.000000000000000e+00 0.000000000000000e+00 0.000000000000000e+00
-4.343528931216922e-03 8.532618562625660e-03 -2.636001915526265e-03
-4.461540931638641e-03 9.201782262778346e-03 -3.378013481022180e-03
-4.657937810453316e-03 9.354161992488286e-03 -4.015487633303394e-03
-4.918703431259774e-03 9.047596892784227e-03 -4.552651998269042e-03
-5.229821657655842e-03 8.339926104695472e-03 -4.993734201812927e-03
-5.577276353240013e-03 7.288988769250326e-03 -5.342961869825302e-03
-5.577276353239791e-03 7.288988769250548e-03 -5.342961869825302e-03
-5.914658798563344e-03 6.077572632639860e-03 -5.585362988533404e-03
-6.259984512305916e-03 4.671941144725911e-03 -5.757815298069957e-03
-6.602557633020090e-03 3.116231963774196e-03 -5.863544944320509e-03
-6.931682299257780e-03 1.454582748050770e-03 -5.905778073186596e-03
-7.236662649571457e-03 -2.688688441796483e-04 -5.887740830544885e-03
-7.236662649571401e-03 -2.688688441795373e-04 -5.887740830544885e-03
-7.619803989581841e-03 -2.830301133896929e-03 -5.757955620580901e-03
-7.892837348426773e-03 -5.288545510472198e-03 -5.514428960808004e-03
-8.021445151447870e-03 -7.501986696803797e-03 -5.167511911114531e-03
-7.971309823986583e-03 -9.329009415790179e-03 -4.727555531392369e-03
-7.708113791384724e-03 -1.062799839032913e-02 -4.204910881529855e-03
        </DataArray>
        <DataArray type="Float64" Name="lambda" NumberOfComponents="3" format="ascii">
3.801528316088194e-04 2.179113647248375e-04 -8.044176395178914e-05
1.104685028590749e-04 2.970575452603939e-05 -4.440480505040747e-05
-7.949145231782846e-05 -9.314257940863552e-05 -1.299644115586868e-05
-1.897270339218907e-04 -1.506336370791873e-04 1.378332773182726e-05
-2.202382419531119e-04 -1.427674184856159e-04 3.593450161268035e-05
-1.710250764114920e-04 -6.954392362792148e-05 5.345708048669057e-05
-1.710250764114920e-04 -6.954392362792141e-05 5.345708048669059e-05
-1.612878565801796e-04 -5.812776773164756e-05 5.502009668197360e-05
-1.506811313072785e-04 -4.599879961983275e-05 5.653263159574886e-05
-1.392049005927886e-04 -3.315701929247690e-05 5.799468522801635e-05
-1.268591644367100e-04 -1.960242674958012e-05 5.940625757877608e-05
-1.136439228390426e-04 -5.335021991142308e-06 6.076734864802806e-05
-1.136439228390407e-04 -5.335021991140275e-06 6.076734864802825e-05
-4.271706206560708e-05 6.839804135514902e-05 6.631154122319394e-05
4.612942579139379e-05 1.568214429927854e-04 7.081536568097704e-05
1.528955407319617e-04 2.599351829217686e-04 7.427882202137752e-05
2.775812827560967e-04 3.777392611420990e-04 7.670191024439538e-05
4.201866518637990e-04 5.102336776537764e-04 7.808463035003064e-05
4.201866518637990e-04 5.102336776537764e-04 7.808463035003064e-05
2.744238189019178e-04 2.978462003833992e-04 2.573209832620872e-05
1.484823782910045e-04 1.165407137181468e-04 -1.702902472988751e-05
4.236233003105926e-05 -3.368278234198053e-05 -5.019873881825801e-05
-4.393632587791822e-05 -1.528242877969830e-04 -7.377704393890286e-05
-1.104135894359277e-04 -2.408838026468606e-04 -8.776394009182199e-05
-1.104135894359278e-04 -2.408838026468608e-04 -8.776394009182202e-05
-1.154125608769105e-04 -2.472696420694639e-04 -8.855051683591194e-05
-1.202517428894566e-04 -2.534049151632480e-04 -8.925977278791433e-05
-1.249311354735661e-04 -2.592896219282131e-04 -8.989170794782919e-05
-1.294507386292389e-04 -2.649237623643589e-04 -9.044632231565653e-05
-1.338105523564752e-04 -2.703073364716858e-04 -9.092361589139631e-05
-1.338105523564765e-04 -2.703073364716874e-04 -9.092361589139646e-05
-1.886927386498788e-04 -3.254719671485780e-04 -8.277148490549730e-05
-1.713326205096472e-04 -2.673532023939094e-04 -3.966189612223564e-05
-8.173019793578185e-05 -9.595104220768162e-05 3.840515045838857e-05
8.011452907171734e-05 1.887345134101053e-04 1.514296548363752e-04
3.142015605128503e-04 5.867034644594514e-04 2.994116170117245e-04
4.253290675030609e-15 5.453816268789248e-15 3.863634368027805e-14
2.974587263982766e-15 4.634751709933891e-15 1.712848260446726e-14
1.928248171683501e-15 3.855820236439366e-15 -3.255305529196783e-15
1.114273398132811e-15 3.117021848305672e-15 -2.251502072071405e-14
5.326629433306963e-16 2.418356545532808e-15 -4.065066297008460e-14
1.834168072771573e-16 1.759824328120775e-15 -5.766223227730842e-14
3.265132553590809e-15 -1.446736815498379e-15 -1.385172628519515e-13
3.433549285940382e-15 -1.499222844293368e-15 -1.397919131625086e-13
3.606286842398903e-15 -1.550962596707684e-15 -1.410456612902572e-13
3.783345222966369e-15 -1.601956072741325e-15 -1.422785072351974e-13
3.964724427642783e-15 -1.652203272394293e-15 -1.434904509973292e-13
4.150424456428141e-15 -1.701704195666586e-15 -1.446814925766525e-13
4.150424456428244e-15 -1.701704195666613e-15 -1.446814925766531e-13
4.485796489815620e-15 -1.786535083852335e-15 -1.467155194630910e-13
4.834401047036709e-15 -1.869080500622232e-15 -1.486855334146777e-13
5.196238128091513e-15 -1.949340445976303e-15 -1.505915344314133e-13
5.571307732980028e-15 -2.027314919914549e-15 -1.524335225132977e-13
5.959609861702256e-15 -2.103003922436969e-15 -1.542114976603309e-13
1.834168072771575e-16 1.759824328120775e-15 -5.766223227730839e-14
7.362146045042623e-17 9.930962076443195e-16 -7.734596633644640e-14
3.268953616684261e-16 2.890760330441763e-16 -9.527333642347971e-14
9.432385109311568e-16 -3.522361956796545e-16 -1.114443425384083e-13
1.922650908238618e-15 -9.308404785271729e-16 -1.258589846812322e-13
3.265132553590811e-15 -1.446736815498380e-15 -1.385172628519515e-13
5.550547038196740e-15 -1.642473574209474e-15 -8.826094611580524e-14
3.765711862686406e-15 -1.294447839604974e-15 -8.035909772152989e-14
1.239561094695914e-15 -8.502240449511686e-16 -7.731998991958162e-14
-2.027905265774735e-15 -3.098021902480589e-16 -7.914362270996045e-14
-6.036687218725547e-15 3.268177245043563e-16 -8.582999609266638e-14
-1.078678476415651e-14 1.059635699306076e-15 -9.737911006769939e-14
5.959609861702256e-15 -2.103003922436969e-15 -1.542114976603309e-13
6.604286577631497e-15 -2.105171951639761e-15 -1.362559015709466e-13
6.885718653245567e-15 -2.060202931418408e-15 -1.206830483718019e-13
6.803906088544463e-15 -1.968096861772909e-15 -1.074929380628968e-13
6.358848883528188e-15 -1.828853742703264e-15 -9.668557064423121e-14
5.550547038196741e-15 -1.642473574209474e-15 -8.826094611580524e-14
9.344213674133280e-04 -4.655258403767729e-03 -4.934423361394884e-04
9.584665778655209e-04 -3.629986417591671e-03 -2.862223402176110e-04
9.639758200998035e-04 -2.127042036315175e-03 -6.342471764304164e-05
9.509490941161758e-04 -1.464252599382414e-04 1.749505315842200e-04
9.193863999146375e-04 2.311863911539129e-03 4.289034074641735e-04
8.692877374951891e-04 5.247825478116938e-03 6.984339099968191e-04
6.049458293527188e-04 1.703508641173139e-02 1.608456694952638e-03
5.876138089572332e-04 1.772581260836555e-02 1.656769153310032e-03
5.698736667708159e-04 1.842705611443158e-02 1.705424597197678e-03
5.517254027934670e-04 1.913881692992948e-02 1.754423026615576e-03
5.331690170251865e-04 1.986109505485924e-02 1.803764441563727e-03
5.142045094659743e-04 2.059389048922086e-02 1.853448842042129e-03
8.692877374951907e-04 5.247825478116853e-03 6.984339099968118e-04
8.299847222563459e-04 7.255697811358043e-03 8.690381338335022e-04
7.838990238226763e-04 9.438360071340093e-03 1.045342524247430e-03
7.310306421941819e-04 1.179581225806300e-02 1.227347081238595e-03
6.713795773708628e-04 1.432805437152676e-02 1.415051804806998e-03
6.049458293527188e-04 1.703508641173139e-02 1.608456694952638e-03
-4.638501042219395e-05 6.398461985002876e-03 -1.635473997592367e-03
2.606220271980148e-04 1.331219664255510e-03 -1.500222437526096e-03
5.122061837916716e-04 -2.307773534995235e-03 -1.318393491347672e-03
7.083674593587762e-04 -4.518517612749352e-03 -1.089987159057095e-03
8.491058538993285e-04 -5.301012569006846e-03 -8.150034406543662e-04
9.344213674133287e-04 -4.655258403767713e-03 -4.934423361394843e-04
1.537376708417027e-02 2.799499943100902e-02 1.645803743376785e-03
2.172797615966674e-02 4.810449694313637e-02 3.600378139643279e-03
2.895309787236966e-02 7.165505543507106e-02 5.905433060929551e-03
3.704913222227901e-02 9.864667490681309e-02 8.560968507235603e-03
4.601607920939477e-02 1.290793553583625e-01 1.156698447856143e-02
5.585393883371699e-02 1.629530967897191e-01 1.492348097490703e-02
5.142045094659743e-04 2.059389048922086e-02 1.853448842042129e-03
-1.217758499704722e-03 1.060443246757218e-02 7.770419008497310e-04
-2.604398268620026e-03 1.979380330852460e-03 -1.603969448348831e-04
-3.645714797279935e-03 -5.281265920938285e-03 -9.588676950117110e-04
-4.341708085684452e-03 -1.117750628780007e-02 -1.618370349680755e-03
-4.692378133833571e-03 -1.570934076973288e-02 -2.138904908842013e-03
-4.692378133833572e-03 -1.570934076973290e-02 -2.138904908842016e-03
-4.710861247321695e-03 -1.865753590176245e-02 -2.493061297184144e-03
-4.440973896851561e-03 -2.046635113635633e-02 -2.731169040357365e-03
-3.882716082423171e-03 -2.113578647351454e-02 -2.853228138361680e-03
-3.036087804036527e-03 -2.066584191323710e-02 -2.859238591197089e-03
-1.901089061691627e-03 -1.905651745552400e-02 -2.749200398863592e-03
-1.901089061691624e-03 -1.905651745552399e-02 -2.749200398863592e-03
2.992551054714129e-04 -1.460336826665449e-02 -2.375097917978278e-03
3.126912803639134e-03 -7.671641983566393e-03 -1.748546263311580e-03
6.581884032811538e-03 1.738661393740284e-03 -8.695454348634975e-04
1.066416879298862e-02 1.362754186526554e-02 2.619045673659690e-04
1.537376708417039e-02 2.799499943100939e-02 1.645803743376821e-03
        </DataArray>
        <DataArray type="Int32" Name="uid_0_pair_beam_id" format="ascii">
275
275
275
275
275
275
275
275
275
275
275
275
275
275
275
275
275
275
276
276
276
276
276
276
276
276
276
276
276
276
276
276
276
276
276
276
277
277
277
277
277
277
277
277
277
277
277
277
277
277
277
277
277
277
277
277
277
277
277
277
278
278
278
278
278
278
278
278
278
278
278
278
279
279
279
279
279
279
279
279
279
279
279
279
279
279
279
279
279
279
279
279
279
279
279
279
280
280
280
280
280
280
280
280
280
280
280
280
280
280
280
280
280
280
280
280
280
280
280
280
        </DataArray>
        <DataArray type="Int32" Name="uid_1_pair_solid_id" format="ascii">
34
34
34
34
34
34
35
35
35
35
35
35
38
38
38
38
38
38
38
38
38
38
38
38
39
39
39
39
39
39
42
42
42
42
42
42
44
44
44
44
44
44
48
48
48
48
48
48
47
47
47
47
47
47
46
46
46
46
46
46
49
49
49
49
49
49
47
47
47
47
47
47
58
58
58
58
58
58
65
65
65
65
65
65
83
83
83
83
83
83
98
98
98
98
98
98
51
51
51
51
51
51
65
65
65
65
65
65
69
69
69
69
69
69
93
93
93
93
93
93
        </DataArray>
  </PointData>
  <CellData>
        <DataArray type="Int32" Name="uid_0_pair_beam_id" format="ascii">
275
275
275
276
276
276
277
277
277
277
278
278
279
279
279
279
280
280
280
280
        </DataArray>
        <DataArray type="Int32" Name="uid_1_pair_solid_id" format="ascii">
34
35
38
38
39
42
44
48
47
46
49
47
58
65
83
98
51
65
69
93
        </DataArray>
      </CellData>

    </Piece>
  </UnstructuredGrid>
</VTKFile>
