<?xml version="1.0" ?> 
<!-- 
# vtk DataFile Version 3.0
-->
<VTKFile type="UnstructuredGrid" version="0.1" compressor="vtkZLibDataCompressor" byte_order="LittleEndian">
  <UnstructuredGrid>
    <FieldData>
      <DataArray type="Float64" Name="TIME" NumberOfTuples="1" format="ascii">
3.000000000000000e+00 
      </DataArray>
      <DataArray type="Float64" Name="sum_coupling_force_beam" NumberOfTuples="1" NumberOfComponents="3" format="ascii">
1.042099437828385e-01 5.496450028635459e-02 4.059808747713251e-03 
      </DataArray>
      <DataArray type="Float64" Name="sum_coupling_force_solid" NumberOfTuples="1" NumberOfComponents="3" format="ascii">
-1.042099437828386e-01 -5.496450028635461e-02 -4.059808747713252e-03 
      </DataArray>
      <DataArray type="Float64" Name="sum_coupling_moment_beam" NumberOfTuples="1" NumberOfComponents="3" format="ascii">
-5.448105137068270e-02 1.320920786670829e-01 1.277092911898156e-03 
      </DataArray>
      <DataArray type="Float64" Name="sum_coupling_moment_solid" NumberOfTuples="1" NumberOfComponents="3" format="ascii">
5.706547624605577e-01 -1.154303444625614e+00 4.791932029385644e-02 
      </DataArray>
    </FieldData>

    <Piece NumberOfPoints="267" NumberOfCells="0" >
      <Points>
        <DataArray type="Float64" NumberOfComponents="3" format="ascii">
7.000000000000000e-01 0.000000000000000e+00 0.000000000000000e+00
6.062177826489999e-01 3.500000000000000e-01 0.000000000000000e+00
6.062177826489999e-01 3.500000000000000e-01 5.000000000000000e-01
7.000000000000000e-01 0.000000000000000e+00 5.000000000000000e-01
1.000000000000000e+00 0.000000000000000e+00 0.000000000000000e+00
8.660254037839999e-01 5.000000000000000e-01 0.000000000000000e+00
8.660254037839999e-01 5.000000000000000e-01 5.000000000000000e-01
1.000000000000000e+00 0.000000000000000e+00 5.000000000000000e-01
3.500000000000000e-01 6.062177826489999e-01 0.000000000000000e+00
3.500000000000000e-01 6.062177826489999e-01 5.000000000000000e-01
5.000000000000000e-01 8.660254037839999e-01 0.000000000000000e+00
5.000000000000000e-01 8.660254037839999e-01 5.000000000000000e-01
0.000000000000000e+00 7.000000000000000e-01 0.000000000000000e+00
0.000000000000000e+00 7.000000000000000e-01 5.000000000000000e-01
0.000000000000000e+00 1.000000000000000e+00 0.000000000000000e+00
0.000000000000000e+00 1.000000000000000e+00 5.000000000000000e-01
6.062177826489999e-01 3.500000000000000e-01 1.000000000000000e+00
7.000000000000000e-01 0.000000000000000e+00 1.000000000000000e+00
8.660254037839999e-01 5.000000000000000e-01 1.000000000000000e+00
1.000000000000000e+00 0.000000000000000e+00 1.000000000000000e+00
3.500000000000000e-01 6.062177826489999e-01 1.000000000000000e+00
5.000000000000000e-01 8.660254037839999e-01 1.000000000000000e+00
0.000000000000000e+00 7.000000000000000e-01 1.000000000000000e+00
0.000000000000000e+00 1.000000000000000e+00 1.000000000000000e+00
6.062177826489999e-01 3.500000000000000e-01 1.500000000000000e+00
7.000000000000000e-01 0.000000000000000e+00 1.500000000000000e+00
8.660254037839999e-01 5.000000000000000e-01 1.500000000000000e+00
1.000000000000000e+00 0.000000000000000e+00 1.500000000000000e+00
3.500000000000000e-01 6.062177826489999e-01 1.500000000000000e+00
5.000000000000000e-01 8.660254037839999e-01 1.500000000000000e+00
0.000000000000000e+00 7.000000000000000e-01 1.500000000000000e+00
0.000000000000000e+00 1.000000000000000e+00 1.500000000000000e+00
0.000000000000000e+00 0.000000000000000e+00 3.500000000000000e+00
0.000000000000000e+00 0.000000000000000e+00 3.000000000000000e+00
0.000000000000000e+00 3.000000000000000e-01 3.000000000000000e+00
0.000000000000000e+00 3.000000000000000e-01 3.500000000000000e+00
5.000000000000000e-01 0.000000000000000e+00 3.500000000000000e+00
5.000000000000000e-01 0.000000000000000e+00 3.000000000000000e+00
5.000000000000000e-01 3.000000000000000e-01 3.000000000000000e+00
5.000000000000000e-01 3.000000000000000e-01 3.500000000000000e+00
0.000000000000000e+00 0.000000000000000e+00 2.500000000000000e+00
0.000000000000000e+00 3.000000000000000e-01 2.500000000000000e+00
5.000000000000000e-01 0.000000000000000e+00 2.500000000000000e+00
5.000000000000000e-01 3.000000000000000e-01 2.500000000000000e+00
1.000000000000000e+00 0.000000000000000e+00 3.500000000000000e+00
1.000000000000000e+00 0.000000000000000e+00 3.000000000000000e+00
1.000000000000000e+00 3.000000000000000e-01 3.000000000000000e+00
1.000000000000000e+00 3.000000000000000e-01 3.500000000000000e+00
1.000000000000000e+00 0.000000000000000e+00 2.500000000000000e+00
1.000000000000000e+00 3.000000000000000e-01 2.500000000000000e+00
1.500000000000000e+00 0.000000000000000e+00 3.500000000000000e+00
1.500000000000000e+00 0.000000000000000e+00 3.000000000000000e+00
1.500000000000000e+00 3.000000000000000e-01 3.000000000000000e+00
1.500000000000000e+00 3.000000000000000e-01 3.500000000000000e+00
1.500000000000000e+00 0.000000000000000e+00 2.500000000000000e+00
1.500000000000000e+00 3.000000000000000e-01 2.500000000000000e+00
2.000000000000000e+00 0.000000000000000e+00 3.500000000000000e+00
2.000000000000000e+00 0.000000000000000e+00 3.000000000000000e+00
2.000000000000000e+00 3.000000000000000e-01 3.000000000000000e+00
2.000000000000000e+00 3.000000000000000e-01 3.500000000000000e+00
2.000000000000000e+00 0.000000000000000e+00 2.500000000000000e+00
2.000000000000000e+00 3.000000000000000e-01 2.500000000000000e+00
7.000000000000000e-01 0.000000000000000e+00 5.000000000000000e+00
6.062177826489999e-01 3.500000000000000e-01 5.000000000000000e+00
6.062177826489999e-01 3.500000000000000e-01 5.500000000000000e+00
7.000000000000000e-01 0.000000000000000e+00 5.500000000000000e+00
1.000000000000000e+00 0.000000000000000e+00 5.000000000000000e+00
8.660254037839999e-01 5.000000000000000e-01 5.000000000000000e+00
8.660254037839999e-01 5.000000000000000e-01 5.500000000000000e+00
1.000000000000000e+00 0.000000000000000e+00 5.500000000000000e+00
6.761480784020000e-01 1.811733315720000e-01 5.000000000000000e+00
6.062177826489999e-01 3.500000000000000e-01 5.250000000000000e+00
6.761480784020000e-01 1.811733315720000e-01 5.500000000000000e+00
7.000000000000000e-01 0.000000000000000e+00 5.250000000000000e+00
8.500000000000000e-01 0.000000000000000e+00 5.000000000000000e+00
7.361215932170000e-01 4.250000000000000e-01 5.000000000000000e+00
7.361215932170000e-01 4.250000000000000e-01 5.500000000000000e+00
8.500000000000000e-01 0.000000000000000e+00 5.500000000000000e+00
9.659258262890000e-01 2.588190451030000e-01 5.000000000000000e+00
8.660254037839999e-01 5.000000000000000e-01 5.250000000000000e+00
9.659258262890000e-01 2.588190451030000e-01 5.500000000000000e+00
1.000000000000000e+00 0.000000000000000e+00 5.250000000000000e+00
3.500000000000000e-01 6.062177826489999e-01 5.000000000000000e+00
3.500000000000000e-01 6.062177826489999e-01 5.500000000000000e+00
5.000000000000000e-01 8.660254037839999e-01 5.000000000000000e+00
5.000000000000000e-01 8.660254037839999e-01 5.500000000000000e+00
4.949747468310000e-01 4.949747468310000e-01 5.000000000000000e+00
3.500000000000000e-01 6.062177826489999e-01 5.250000000000000e+00
4.949747468310000e-01 4.949747468310000e-01 5.500000000000000e+00
4.250000000000000e-01 7.361215932170000e-01 5.000000000000000e+00
4.250000000000000e-01 7.361215932170000e-01 5.500000000000000e+00
7.071067811870000e-01 7.071067811870000e-01 5.000000000000000e+00
5.000000000000000e-01 8.660254037839999e-01 5.250000000000000e+00
7.071067811870000e-01 7.071067811870000e-01 5.500000000000000e+00
0.000000000000000e+00 7.000000000000000e-01 5.000000000000000e+00
0.000000000000000e+00 7.000000000000000e-01 5.500000000000000e+00
0.000000000000000e+00 1.000000000000000e+00 5.000000000000000e+00
0.000000000000000e+00 1.000000000000000e+00 5.500000000000000e+00
1.811733315720000e-01 6.761480784020000e-01 5.000000000000000e+00
0.000000000000000e+00 7.000000000000000e-01 5.250000000000000e+00
1.811733315720000e-01 6.761480784020000e-01 5.500000000000000e+00
0.000000000000000e+00 8.500000000000000e-01 5.000000000000000e+00
0.000000000000000e+00 8.500000000000000e-01 5.500000000000000e+00
2.588190451030000e-01 9.659258262890000e-01 5.000000000000000e+00
0.000000000000000e+00 1.000000000000000e+00 5.250000000000000e+00
2.588190451030000e-01 9.659258262890000e-01 5.500000000000000e+00
6.062177826489999e-01 3.500000000000000e-01 6.000000000000000e+00
7.000000000000000e-01 0.000000000000000e+00 6.000000000000000e+00
8.660254037839999e-01 5.000000000000000e-01 6.000000000000000e+00
1.000000000000000e+00 0.000000000000000e+00 6.000000000000000e+00
6.062177826489999e-01 3.500000000000000e-01 5.750000000000000e+00
6.761480784020000e-01 1.811733315720000e-01 6.000000000000000e+00
7.000000000000000e-01 0.000000000000000e+00 5.750000000000000e+00
7.361215932170000e-01 4.250000000000000e-01 6.000000000000000e+00
8.500000000000000e-01 0.000000000000000e+00 6.000000000000000e+00
8.660254037839999e-01 5.000000000000000e-01 5.750000000000000e+00
9.659258262890000e-01 2.588190451030000e-01 6.000000000000000e+00
1.000000000000000e+00 0.000000000000000e+00 5.750000000000000e+00
3.500000000000000e-01 6.062177826489999e-01 6.000000000000000e+00
5.000000000000000e-01 8.660254037839999e-01 6.000000000000000e+00
3.500000000000000e-01 6.062177826489999e-01 5.750000000000000e+00
4.949747468310000e-01 4.949747468310000e-01 6.000000000000000e+00
4.250000000000000e-01 7.361215932170000e-01 6.000000000000000e+00
5.000000000000000e-01 8.660254037839999e-01 5.750000000000000e+00
7.071067811870000e-01 7.071067811870000e-01 6.000000000000000e+00
0.000000000000000e+00 7.000000000000000e-01 6.000000000000000e+00
0.000000000000000e+00 1.000000000000000e+00 6.000000000000000e+00
0.000000000000000e+00 7.000000000000000e-01 5.750000000000000e+00
1.811733315720000e-01 6.761480784020000e-01 6.000000000000000e+00
0.000000000000000e+00 8.500000000000000e-01 6.000000000000000e+00
0.000000000000000e+00 1.000000000000000e+00 5.750000000000000e+00
2.588190451030000e-01 9.659258262890000e-01 6.000000000000000e+00
6.062177826489999e-01 3.500000000000000e-01 6.500000000000000e+00
7.000000000000000e-01 0.000000000000000e+00 6.500000000000000e+00
8.660254037839999e-01 5.000000000000000e-01 6.500000000000000e+00
1.000000000000000e+00 0.000000000000000e+00 6.500000000000000e+00
6.062177826489999e-01 3.500000000000000e-01 6.250000000000000e+00
6.761480784020000e-01 1.811733315720000e-01 6.500000000000000e+00
7.000000000000000e-01 0.000000000000000e+00 6.250000000000000e+00
7.361215932170000e-01 4.250000000000000e-01 6.500000000000000e+00
8.500000000000000e-01 0.000000000000000e+00 6.500000000000000e+00
8.660254037839999e-01 5.000000000000000e-01 6.250000000000000e+00
9.659258262890000e-01 2.588190451030000e-01 6.500000000000000e+00
1.000000000000000e+00 0.000000000000000e+00 6.250000000000000e+00
3.500000000000000e-01 6.062177826489999e-01 6.500000000000000e+00
5.000000000000000e-01 8.660254037839999e-01 6.500000000000000e+00
3.500000000000000e-01 6.062177826489999e-01 6.250000000000000e+00
4.949747468310000e-01 4.949747468310000e-01 6.500000000000000e+00
4.250000000000000e-01 7.361215932170000e-01 6.500000000000000e+00
5.000000000000000e-01 8.660254037839999e-01 6.250000000000000e+00
7.071067811870000e-01 7.071067811870000e-01 6.500000000000000e+00
0.000000000000000e+00 7.000000000000000e-01 6.500000000000000e+00
0.000000000000000e+00 1.000000000000000e+00 6.500000000000000e+00
0.000000000000000e+00 7.000000000000000e-01 6.250000000000000e+00
1.811733315720000e-01 6.761480784020000e-01 6.500000000000000e+00
0.000000000000000e+00 8.500000000000000e-01 6.500000000000000e+00
0.000000000000000e+00 1.000000000000000e+00 6.250000000000000e+00
2.588190451030000e-01 9.659258262890000e-01 6.500000000000000e+00
0.000000000000000e+00 0.000000000000000e+00 8.500000000000000e+00
0.000000000000000e+00 0.000000000000000e+00 8.000000000000000e+00
0.000000000000000e+00 3.000000000000000e-01 8.000000000000000e+00
0.000000000000000e+00 3.000000000000000e-01 8.500000000000000e+00
5.000000000000000e-01 0.000000000000000e+00 8.500000000000000e+00
5.000000000000000e-01 0.000000000000000e+00 8.000000000000000e+00
5.000000000000000e-01 3.000000000000000e-01 8.000000000000000e+00
5.000000000000000e-01 3.000000000000000e-01 8.500000000000000e+00
0.000000000000000e+00 0.000000000000000e+00 8.250000000000000e+00
0.000000000000000e+00 1.500000000000000e-01 8.000000000000000e+00
0.000000000000000e+00 3.000000000000000e-01 8.250000000000000e+00
0.000000000000000e+00 1.500000000000000e-01 8.500000000000000e+00
2.500000000000000e-01 0.000000000000000e+00 8.500000000000000e+00
2.500000000000000e-01 0.000000000000000e+00 8.000000000000000e+00
2.500000000000000e-01 3.000000000000000e-01 8.000000000000000e+00
2.500000000000000e-01 3.000000000000000e-01 8.500000000000000e+00
5.000000000000000e-01 0.000000000000000e+00 8.250000000000000e+00
5.000000000000000e-01 1.500000000000000e-01 8.000000000000000e+00
5.000000000000000e-01 3.000000000000000e-01 8.250000000000000e+00
5.000000000000000e-01 1.500000000000000e-01 8.500000000000000e+00
0.000000000000000e+00 0.000000000000000e+00 7.500000000000000e+00
0.000000000000000e+00 3.000000000000000e-01 7.500000000000000e+00
5.000000000000000e-01 0.000000000000000e+00 7.500000000000000e+00
5.000000000000000e-01 3.000000000000000e-01 7.500000000000000e+00
0.000000000000000e+00 0.000000000000000e+00 7.750000000000000e+00
0.000000000000000e+00 1.500000000000000e-01 7.500000000000000e+00
0.000000000000000e+00 3.000000000000000e-01 7.750000000000000e+00
2.500000000000000e-01 0.000000000000000e+00 7.500000000000000e+00
2.500000000000000e-01 3.000000000000000e-01 7.500000000000000e+00
5.000000000000000e-01 0.000000000000000e+00 7.750000000000000e+00
5.000000000000000e-01 1.500000000000000e-01 7.500000000000000e+00
5.000000000000000e-01 3.000000000000000e-01 7.750000000000000e+00
1.000000000000000e+00 0.000000000000000e+00 8.500000000000000e+00
1.000000000000000e+00 0.000000000000000e+00 8.000000000000000e+00
1.000000000000000e+00 3.000000000000000e-01 8.000000000000000e+00
1.000000000000000e+00 3.000000000000000e-01 8.500000000000000e+00
7.500000000000000e-01 0.000000000000000e+00 8.500000000000000e+00
7.500000000000000e-01 0.000000000000000e+00 8.000000000000000e+00
7.500000000000000e-01 3.000000000000000e-01 8.000000000000000e+00
7.500000000000000e-01 3.000000000000000e-01 8.500000000000000e+00
1.000000000000000e+00 0.000000000000000e+00 8.250000000000000e+00
1.000000000000000e+00 1.500000000000000e-01 8.000000000000000e+00
1.000000000000000e+00 3.000000000000000e-01 8.250000000000000e+00
1.000000000000000e+00 1.500000000000000e-01 8.500000000000000e+00
1.000000000000000e+00 0.000000000000000e+00 7.500000000000000e+00
1.000000000000000e+00 3.000000000000000e-01 7.500000000000000e+00
7.500000000000000e-01 0.000000000000000e+00 7.500000000000000e+00
7.500000000000000e-01 3.000000000000000e-01 7.500000000000000e+00
1.000000000000000e+00 0.000000000000000e+00 7.750000000000000e+00
1.000000000000000e+00 1.500000000000000e-01 7.500000000000000e+00
1.000000000000000e+00 3.000000000000000e-01 7.750000000000000e+00
1.500000000000000e+00 0.000000000000000e+00 8.500000000000000e+00
1.500000000000000e+00 0.000000000000000e+00 8.000000000000000e+00
1.500000000000000e+00 3.000000000000000e-01 8.000000000000000e+00
1.500000000000000e+00 3.000000000000000e-01 8.500000000000000e+00
1.250000000000000e+00 0.000000000000000e+00 8.500000000000000e+00
1.250000000000000e+00 0.000000000000000e+00 8.000000000000000e+00
1.250000000000000e+00 3.000000000000000e-01 8.000000000000000e+00
1.250000000000000e+00 3.000000000000000e-01 8.500000000000000e+00
1.500000000000000e+00 0.000000000000000e+00 8.250000000000000e+00
1.500000000000000e+00 1.500000000000000e-01 8.000000000000000e+00
1.500000000000000e+00 3.000000000000000e-01 8.250000000000000e+00
1.500000000000000e+00 1.500000000000000e-01 8.500000000000000e+00
1.500000000000000e+00 0.000000000000000e+00 7.500000000000000e+00
1.500000000000000e+00 3.000000000000000e-01 7.500000000000000e+00
1.250000000000000e+00 0.000000000000000e+00 7.500000000000000e+00
1.250000000000000e+00 3.000000000000000e-01 7.500000000000000e+00
1.500000000000000e+00 0.000000000000000e+00 7.750000000000000e+00
1.500000000000000e+00 1.500000000000000e-01 7.500000000000000e+00
1.500000000000000e+00 3.000000000000000e-01 7.750000000000000e+00
2.000000000000000e+00 0.000000000000000e+00 8.500000000000000e+00
2.000000000000000e+00 0.000000000000000e+00 8.000000000000000e+00
2.000000000000000e+00 3.000000000000000e-01 8.000000000000000e+00
2.000000000000000e+00 3.000000000000000e-01 8.500000000000000e+00
1.750000000000000e+00 0.000000000000000e+00 8.500000000000000e+00
1.750000000000000e+00 0.000000000000000e+00 8.000000000000000e+00
1.750000000000000e+00 3.000000000000000e-01 8.000000000000000e+00
1.750000000000000e+00 3.000000000000000e-01 8.500000000000000e+00
2.000000000000000e+00 0.000000000000000e+00 8.250000000000000e+00
2.000000000000000e+00 1.500000000000000e-01 8.000000000000000e+00
2.000000000000000e+00 3.000000000000000e-01 8.250000000000000e+00
2.000000000000000e+00 1.500000000000000e-01 8.500000000000000e+00
2.000000000000000e+00 0.000000000000000e+00 7.500000000000000e+00
2.000000000000000e+00 3.000000000000000e-01 7.500000000000000e+00
1.750000000000000e+00 0.000000000000000e+00 7.500000000000000e+00
1.750000000000000e+00 3.000000000000000e-01 7.500000000000000e+00
2.000000000000000e+00 0.000000000000000e+00 7.750000000000000e+00
2.000000000000000e+00 1.500000000000000e-01 7.500000000000000e+00
2.000000000000000e+00 3.000000000000000e-01 7.750000000000000e+00
1.000000000000000e+00 0.000000000000000e+00 -7.079632679490000e-02
9.238795325110000e-01 3.826834323650000e-01 3.219027549040000e-01
7.071067811870000e-01 7.071067811870000e-01 7.146018366030000e-01
3.826834323650000e-01 9.238795325110000e-01 1.107300918300000e+00
0.000000000000000e+00 1.000000000000000e+00 1.500000000000000e+00
1.000000000000000e-01 3.000000000000000e-01 2.500000000000000e+00
6.250000000000000e-01 3.000000000000000e-01 2.775000000000000e+00
1.150000000000000e+00 3.000000000000000e-01 3.050000000000000e+00
1.675000000000000e+00 3.000000000000000e-01 3.325000000000000e+00
2.200000000000000e+00 3.000000000000000e-01 3.600000000000000e+00
1.000000000000000e+00 0.000000000000000e+00 4.929203673210000e+00
9.238795325110000e-01 3.826834323650000e-01 5.321902754900000e+00
7.071067811870000e-01 7.071067811870000e-01 5.714601836600000e+00
3.826834323650000e-01 9.238795325110000e-01 6.107300918300000e+00
0.000000000000000e+00 1.000000000000000e+00 6.500000000000000e+00
1.000000000000000e-01 3.000000000000000e-01 7.500000000000000e+00
6.250000000000000e-01 3.000000000000000e-01 7.775000000000000e+00
1.150000000000000e+00 3.000000000000000e-01 8.050000000000001e+00
1.675000000000000e+00 3.000000000000000e-01 8.324999999999999e+00
2.200000000000000e+00 3.000000000000000e-01 8.600000000000000e+00
        </DataArray>
      </Points>

      <Cells>
        <DataArray type="Int32" Name="connectivity" format="ascii">

        </DataArray>
        <DataArray type="Int32" Name="offsets" format="ascii">

        </DataArray>
        <DataArray type="UInt8" Name="types" format="ascii">

        </DataArray>
      </Cells>

  <PointData>
        <DataArray type="Float64" Name="displacement" NumberOfComponents="3" format="ascii">
3.264962259447506e-01 1.710838478779465e-01 -2.419824403554108e-02
1.612700853873738e-01 9.657870525762173e-02 -1.397271036511863e-02
1.145273378860173e-01 8.928639290344019e-02 -1.987981250226340e-02
2.283610404339497e-01 1.304387680405457e-01 -3.613898946793332e-02
3.228033849769563e-01 2.906951044012108e-01 2.660729989646160e-02
8.209969311477443e-02 1.703442296782609e-01 -6.986038520481658e-04
5.770987728469050e-02 1.542953226035334e-01 -5.460710161910901e-03
2.040372764375332e-01 2.233789133117213e-01 1.375124538256571e-02
4.698701351673112e-02 2.528237617026710e-02 6.525787655843068e-04
3.890116842008640e-02 3.173415103619085e-02 -1.237558804113553e-02
-1.227613910547753e-02 3.806658461817759e-02 -1.148625098063105e-02
-9.783146329417618e-03 4.936484972242247e-02 -7.883951317226408e-03
0.000000000000000e+00 0.000000000000000e+00 0.000000000000000e+00
0.000000000000000e+00 0.000000000000000e+00 0.000000000000000e+00
0.000000000000000e+00 0.000000000000000e+00 0.000000000000000e+00
0.000000000000000e+00 0.000000000000000e+00 0.000000000000000e+00
8.244907269179320e-02 8.266980569001930e-02 -1.742100690677136e-02
1.540001115108172e-01 1.137281134154861e-01 -2.822185391689046e-02
4.378309358412694e-02 1.382995859510273e-01 -1.241252791513725e-03
1.468607405545038e-01 1.749738534725056e-01 9.235517072396238e-04
2.617063402944271e-02 2.721037064553209e-02 -6.364095900743058e-03
-1.787595007732095e-02 3.718189263244501e-02 -9.880670016582696e-03
0.000000000000000e+00 0.000000000000000e+00 0.000000000000000e+00
0.000000000000000e+00 0.000000000000000e+00 0.000000000000000e+00
5.728185030611575e-02 7.680532532156255e-02 -1.463561087515867e-02
1.118868091430242e-01 9.125124775391678e-02 -2.856559231515050e-02
3.191047598436151e-02 1.077175692255200e-01 -8.391491755397305e-04
1.067813608159339e-01 1.411931305719285e-01 -4.568118627796964e-03
2.857471381396469e-02 4.818516651526517e-02 -3.152389763271446e-03
-8.823394735383733e-04 7.149604546698503e-02 -1.073193161999183e-02
0.000000000000000e+00 0.000000000000000e+00 0.000000000000000e+00
0.000000000000000e+00 0.000000000000000e+00 0.000000000000000e+00
0.000000000000000e+00 0.000000000000000e+00 0.000000000000000e+00
0.000000000000000e+00 0.000000000000000e+00 0.000000000000000e+00
0.000000000000000e+00 0.000000000000000e+00 0.000000000000000e+00
0.000000000000000e+00 0.000000000000000e+00 0.000000000000000e+00
2.574911648562692e-02 8.800462553927635e-02 1.672920613741843e-02
3.064814907599222e-02 7.049944746041749e-02 2.661728588286221e-02
-2.915463289255235e-02 6.377311270805901e-02 4.014489638241003e-03
-5.517901373894499e-02 7.885528858648294e-02 1.291894373681871e-02
0.000000000000000e+00 0.000000000000000e+00 0.000000000000000e+00
0.000000000000000e+00 0.000000000000000e+00 0.000000000000000e+00
4.267214529296180e-02 2.465431480189822e-02 4.060929305129388e-02
-2.600966505232294e-03 9.169453958490184e-03 3.406764764805124e-04
1.300690702469938e-02 2.817914186444816e-01 5.101274478346162e-02
3.609923478440522e-02 2.174013545417076e-01 5.926902628227657e-02
-6.064099399172058e-02 1.956896709781158e-01 1.740615924373666e-02
-1.058430174078597e-01 2.531199628751721e-01 1.207495723581798e-02
6.316888968091035e-02 1.481818425135158e-01 6.944114810819230e-02
-1.992441473662633e-02 1.325082584985141e-01 2.287267036668459e-02
-2.472199073559415e-02 5.203978672676183e-01 7.188934370306319e-02
1.293801329614567e-02 4.161798246189494e-01 8.566952292584885e-02
-1.025288386115404e-01 3.840702160078904e-01 2.141564838294823e-02
-1.529125496420584e-01 4.803016146485246e-01 1.097449319696751e-02
5.116327388121577e-02 3.136235667558728e-01 9.858424452752845e-02
-5.095280504953496e-02 2.868586836080948e-01 3.083140460623962e-02
-8.150012083661035e-02 7.687033210784233e-01 7.334016979216579e-02
-2.862170418892298e-02 6.301652884730112e-01 9.683060963964019e-02
-1.509349730753029e-01 5.894899056340250e-01 1.272155452944192e-02
-2.153200226872516e-01 7.320785820027175e-01 -1.043940600384780e-02
2.005675995059347e-02 4.973781074071622e-01 1.138087125096584e-01
-8.641489209560210e-02 4.665151357778557e-01 3.326682011359881e-02
3.826784022398869e-01 2.359060565795853e-01 -4.235259694751287e-02
2.036029139953814e-01 1.462752975694712e-01 -2.032565377386350e-02
1.458821307370349e-01 1.155209671856666e-01 -2.943579067626088e-02
2.731154208747686e-01 1.749432585228382e-01 -4.873871841999790e-02
3.713125019683859e-01 3.525668146493435e-01 3.661406225943718e-02
1.022741406821412e-01 2.380798153284526e-01 9.135355547625535e-03
7.289068482117229e-02 1.915743874987959e-01 -5.971358415065412e-03
2.490922719103320e-01 2.808188646900158e-01 7.396791495859446e-03
2.931953851499441e-01 2.026499355530716e-01 -3.033213910742426e-02
1.771422911477664e-01 1.284049937257743e-01 -2.770111354592230e-02
2.075973256916421e-01 1.521250564036500e-01 -4.050147928863371e-02
3.308300752272730e-01 2.007206892217981e-01 -4.712527437104139e-02
3.700323596020904e-01 2.990629755825700e-01 -3.626948424520006e-03
1.531560840478477e-01 1.913083928002852e-01 -4.965083515947602e-03
1.084686082581580e-01 1.534522689927683e-01 -1.537653421675301e-02
2.618504024138643e-01 2.270994541526760e-01 -2.176481282140183e-02
2.418619044969988e-01 3.111183131395472e-01 2.516429489989238e-02
9.070743721009364e-02 2.148284470433393e-01 -3.199832956392583e-04
1.553332301636003e-01 2.487489845226427e-01 7.765353001042410e-03
3.003724875008033e-01 3.166890342543321e-01 1.757514512013342e-02
6.141510036296404e-02 3.451054651501821e-02 1.712327153877889e-04
5.165810304767832e-02 3.681278018986017e-02 -1.156769657507332e-02
-9.340131791498793e-03 6.120130835556481e-02 -9.298777620252306e-03
-8.879906139646277e-03 6.107661977385164e-02 -6.434441037510718e-03
1.213779360104205e-01 8.507361211879767e-02 -8.658508154178148e-03
6.029433408062398e-02 3.783459150098312e-02 -8.744340648334252e-03
9.316965683859969e-02 7.520103067223163e-02 -2.056654603298516e-02
2.479412102919131e-02 4.448926331328571e-02 -5.085038407184671e-03
2.075658710011303e-02 4.570548737718731e-02 -8.729768098199137e-03
2.205002322183852e-02 1.442289039186717e-01 -3.457350324452997e-03
-8.635039592631705e-03 6.361148192959561e-02 -6.221325896171603e-03
1.827160182819710e-02 1.268485300705760e-01 -7.036715533564154e-03
0.000000000000000e+00 0.000000000000000e+00 0.000000000000000e+00
0.000000000000000e+00 0.000000000000000e+00 0.000000000000000e+00
0.000000000000000e+00 0.000000000000000e+00 0.000000000000000e+00
0.000000000000000e+00 0.000000000000000e+00 0.000000000000000e+00
2.317242160300496e-02 6.921213801488160e-03 4.457088344738383e-03
0.000000000000000e+00 0.000000000000000e+00 0.000000000000000e+00
2.159958915399712e-02 1.095461840773360e-02 -5.914305415600845e-03
0.000000000000000e+00 0.000000000000000e+00 0.000000000000000e+00
0.000000000000000e+00 0.000000000000000e+00 0.000000000000000e+00
-1.055479021574890e-02 1.074743810748720e-02 -6.939491787549177e-03
0.000000000000000e+00 0.000000000000000e+00 0.000000000000000e+00
-1.057730991298163e-02 1.500595655322095e-02 -4.755040401893746e-03
1.014588057595936e-01 8.913376714003844e-02 -2.828772962190684e-02
1.966399363229850e-01 1.276700911613644e-01 -4.994937145835587e-02
5.298517305067608e-02 1.499551477648052e-01 -3.504413904685513e-04
1.847579813669966e-01 2.092539648070503e-01 -1.591355941613586e-02
1.213068700926046e-01 1.036076452991904e-01 -2.865529844321264e-02
1.468827648114122e-01 1.135344560392861e-01 -3.773853710660783e-02
2.282752082315502e-01 1.513092740990890e-01 -4.965270082895111e-02
7.686895908288222e-02 1.192831659179519e-01 -1.476222041437224e-02
1.901891177919600e-01 1.680395059552761e-01 -3.307043452112241e-02
6.355212484511345e-02 1.737471294519262e-01 -2.267251671511651e-03
1.128077741718594e-01 1.881758381283335e-01 -2.684706061691469e-03
2.116013261950378e-01 2.418551353970519e-01 -5.518279408758537e-03
3.646339301951044e-02 3.119549332101335e-02 -1.385285014026783e-02
-1.055631799593731e-02 5.147126147359688e-02 -3.932777395651912e-03
4.389175847897226e-02 3.563991227042767e-02 -1.284626071273977e-02
6.484047221138704e-02 6.054579921114733e-02 -2.071592046354270e-02
1.281468248958099e-02 3.948647508969713e-02 -8.692112507757057e-03
-8.345869904653696e-03 5.880584205092724e-02 -6.178390017469029e-03
1.164739585563175e-02 1.016530687345716e-01 -2.290165633962361e-03
0.000000000000000e+00 0.000000000000000e+00 0.000000000000000e+00
0.000000000000000e+00 0.000000000000000e+00 0.000000000000000e+00
0.000000000000000e+00 0.000000000000000e+00 0.000000000000000e+00
1.555300950828997e-02 9.956515117928895e-03 -6.811515542391552e-03
0.000000000000000e+00 0.000000000000000e+00 0.000000000000000e+00
0.000000000000000e+00 0.000000000000000e+00 0.000000000000000e+00
-1.130383876274127e-02 1.434571156146201e-02 -2.799765665061513e-03
7.240079250628581e-02 5.227585633529161e-02 -3.038453792361675e-02
1.529108857454812e-01 8.244886742225746e-02 -5.110400739754921e-02
3.332059328308073e-02 1.055261229176792e-01 -1.724473358565239e-03
1.433190814256341e-01 1.536274264602011e-01 -2.364363894264579e-02
8.583360024463302e-02 7.210166338560041e-02 -2.873026703264806e-02
1.100860463023065e-01 7.143718939081828e-02 -3.921544114736838e-02
1.726145306278991e-01 1.048805015239352e-01 -5.006223309789274e-02
5.253097192973746e-02 7.871610932817356e-02 -1.570487442864995e-02
1.482046961108397e-01 1.179642688548055e-01 -3.749394537187296e-02
4.428142869878092e-02 1.267409790301255e-01 -1.228024160207099e-03
8.280230489243036e-02 1.364113689045684e-01 -8.819220990783697e-03
1.625495240451608e-01 1.792753682151788e-01 -2.121013843186537e-02
2.302373980664537e-02 1.192452517212054e-02 -1.677704867979848e-02
-9.099331752911274e-03 2.797602679632159e-02 6.779091965279671e-04
2.824123659012501e-02 2.443224323088863e-02 -1.439302531820678e-02
4.372300724394015e-02 3.095900578529769e-02 -2.423135623025781e-02
6.501612559173293e-03 1.861997213536903e-02 -7.865469159742431e-03
-9.365076244164758e-03 4.214972268944872e-02 -1.525330577795374e-03
2.111598039005522e-03 6.540377762214797e-02 5.115971242171728e-04
0.000000000000000e+00 0.000000000000000e+00 0.000000000000000e+00
0.000000000000000e+00 0.000000000000000e+00 0.000000000000000e+00
0.000000000000000e+00 0.000000000000000e+00 0.000000000000000e+00
9.542465233996546e-03 2.510784192870925e-03 -9.801906146360333e-03
0.000000000000000e+00 0.000000000000000e+00 0.000000000000000e+00
0.000000000000000e+00 0.000000000000000e+00 0.000000000000000e+00
-5.368186519456578e-03 8.008710408622208e-03 2.413532498760066e-03
0.000000000000000e+00 0.000000000000000e+00 0.000000000000000e+00