<?xml version="1.0" ?> 
<!-- 
# vtk DataFile Version 3.0
-->
<VTKFile type="UnstructuredGrid" version="0.1" compressor="vtkZLibDataCompressor" byte_order="LittleEndian">
  <UnstructuredGrid>
    <FieldData>
      <DataArray type="Float64" Name="TIME" NumberOfTuples="1" format="ascii">
1.000000000000000e+00 
      </DataArray>
    </FieldData>

    <Piece NumberOfPoints="168" NumberOfCells="28" >
      <Points>
        <DataArray type="Float64" NumberOfComponents="3" format="ascii">
1.000000000000000e-01 3.000000000000000e-01 1.750000000000000e+01
1.657058208020203e-01 2.999999999999999e-01 1.753441733470579e+01
2.314116416040352e-01 3.000000000000000e-01 1.756883466941158e+01
2.971174624060454e-01 3.000000000000000e-01 1.760325200411739e+01
3.628232832080518e-01 3.000000000000000e-01 1.763766933882320e+01
4.285291040100552e-01 3.000000000000000e-01 1.767208667352902e+01
1.053627568438915e+00 3.000000000000000e-01 1.799951920251567e+01
1.072902054751131e+00 3.000000000000000e-01 1.800961536201254e+01
1.092176541063347e+00 3.000000000000000e-01 1.801971152150941e+01
1.111451027375564e+00 3.000000000000000e-01 1.802980768100627e+01
1.130725513687782e+00 3.000000000000000e-01 1.803990384050314e+01
1.150000000000000e+00 3.000000000000000e-01 1.805000000000000e+01
8.155693453509689e-01 3.000000000000000e-01 1.787482203804104e+01
8.631809899685559e-01 3.000000000000000e-01 1.789976147093597e+01
9.107926345861442e-01 3.000000000000000e-01 1.792470090383090e+01
9.584042792037344e-01 3.000000000000000e-01 1.794964033672582e+01
1.006015923821326e+00 3.000000000000000e-01 1.797457976962075e+01
1.053627568438921e+00 3.000000000000000e-01 1.799951920251567e+01
4.285291040100551e-01 3.000000000000000e-01 1.767208667352902e+01
4.719612455694210e-01 3.000000000000000e-01 1.769483684291727e+01
5.153933871287860e-01 3.000000000000000e-01 1.771758701230552e+01
5.588255286881505e-01 3.000000000000000e-01 1.774033718169377e+01
6.022576702475146e-01 3.000000000000000e-01 1.776308735108202e+01
6.456898118068788e-01 3.000000000000000e-01 1.778583752047027e+01
6.456898118068778e-01 3.000000000000000e-01 1.778583752047028e+01
6.796657185156949e-01 3.000000000000000e-01 1.780363442398443e+01
7.136416252245125e-01 3.000000000000000e-01 1.782143132749858e+01
7.476175319333302e-01 3.000000000000000e-01 1.783922823101273e+01
7.815934386421484e-01 3.000000000000000e-01 1.785702513452689e+01
8.155693453509669e-01 2.999999999999999e-01 1.787482203804103e+01
1.150000000000000e+00 3.000000000000000e-01 1.805000000000000e+01
1.160969959246526e+00 3.000000000000000e-01 1.805574616912913e+01
1.171939918493052e+00 3.000000000000000e-01 1.806149233825825e+01
1.182909877739577e+00 3.000000000000000e-01 1.806723850738738e+01
1.193879836986102e+00 3.000000000000000e-01 1.807298467651651e+01
1.204849796232627e+00 2.999999999999999e-01 1.807873084564564e+01
1.204849796232627e+00 3.000000000000000e-01 1.807873084564563e+01
1.226439972659219e+00 3.000000000000000e-01 1.809003998567860e+01
1.248030149085812e+00 3.000000000000000e-01 1.810134912571157e+01
1.269620325512403e+00 3.000000000000000e-01 1.811265826574455e+01
1.291210501938995e+00 3.000000000000000e-01 1.812396740577752e+01
1.312800678365585e+00 3.000000000000000e-01 1.813527654581049e+01
1.995978191111751e+00 2.999999999999999e-01 1.849313143343955e+01
1.996782552889401e+00 3.000000000000000e-01 1.849355276579927e+01
1.997586914667051e+00 3.000000000000000e-01 1.849397409815900e+01
1.998391276444701e+00 3.000000000000000e-01 1.849439543051871e+01
1.999195638222350e+00 3.000000000000000e-01 1.849481676287844e+01
2.000000000000000e+00 2.999999999999999e-01 1.849523809523815e+01
1.312800678365585e+00 3.000000000000000e-01 1.813527654581049e+01
1.368399463011551e+00 3.000000000000000e-01 1.816439971872027e+01
1.423998247657513e+00 3.000000000000000e-01 1.819352289163007e+01
1.479597032303474e+00 3.000000000000000e-01 1.822264606453987e+01
1.535195816949434e+00 3.000000000000000e-01 1.825176923744967e+01
1.590794601595392e+00 3.000000000000000e-01 1.828089241035947e+01
1.590794601595393e+00 3.000000000000000e-01 1.828089241035947e+01
1.671831319498662e+00 3.000000000000000e-01 1.832334021497549e+01
1.752868037401931e+00 3.000000000000000e-01 1.836578801959151e+01
1.833904755305201e+00 3.000000000000000e-01 1.840823582420753e+01
1.914941473208474e+00 3.000000000000000e-01 1.845068362882354e+01
1.995978191111751e+00 3.000000000000000e-01 1.849313143343955e+01
7.282912294134959e-01 6.852366693390888e-01 2.068414601579194e+01
7.241106364536576e-01 6.896637782823790e-01 2.069023732214323e+01
7.199018095239137e-01 6.940645506611034e-01 2.069632855855654e+01
7.156648342514392e-01 6.984387797529737e-01 2.070241972387501e+01
7.113997962634095e-01 7.027862588357019e-01 2.070851081694178e+01
7.071067811870000e-01 7.071067811870000e-01 2.071460183660000e+01
8.076108102509371e-01 5.890449378240568e-01 2.055929315811433e+01
7.927338861635762e-01 6.090758948924583e-01 2.058426556285371e+01
7.773575691204947e-01 6.287247829919193e-01 2.060923713066072e+01
7.614877560373492e-01 6.479773657086826e-01 2.063420778186579e+01
7.451303438297973e-01 6.668194066289913e-01 2.065917743679938e+01
7.282912294134961e-01 6.852366693390888e-01 2.068414601579194e+01
9.973931080192994e-01 7.070272402877290e-02 1.999999998885323e+01
9.896465936461449e-01 1.411169207886336e-01 2.007091132471544e+01
9.768954893416769e-01 2.108098393097664e-01 2.014182911711733e+01
9.592748335446842e-01 2.794554679617731e-01 2.021275154163867e+01
9.369196646939564e-01 3.467277951142557e-01 2.028367677385926e+01
9.099650212282825e-01 4.123008091368161e-01 2.035460298935891e+01
9.099650212282833e-01 4.123008091368143e-01 2.035460298935891e+01
8.923652767420709e-01 4.492500558628307e-01 2.039554298713703e+01
8.733040123845350e-01 4.854617916753027e-01 2.043648235377986e+01
8.528071991723706e-01 5.208733169934909e-01 2.047742073840917e+01
8.309008081222728e-01 5.554219322366558e-01 2.051835779014673e+01
8.076108102509362e-01 5.890449378240580e-01 2.055929315811433e+01
2.527815540384706e-01 9.667300861487246e-01 2.124416147965651e+01
2.030327252253816e-01 9.785719719161664e-01 2.129533559119451e+01
1.527576794466600e-01 9.878706373921692e-01 2.134650718439559e+01
1.020788926706359e-01 9.945753513695786e-01 2.139767557386203e+01
5.111884086563925e-02 9.986353826412403e-01 2.144884007419607e+01
0.000000000000000e+00 1.000000000000000e+00 2.150000000000000e+01
5.837516764426333e-01 8.114136823547502e-01 2.087643344895821e+01
5.594095119999114e-01 8.282437222889643e-01 2.090605072726628e+01
5.345789739294943e-01 8.443510778503559e-01 2.093566890849279e+01
5.092838088901573e-01 8.597259128507986e-01 2.096528785974713e+01
4.835477635406755e-01 8.743583911021644e-01 2.099490744813868e+01
4.573945845398238e-01 8.882386764163268e-01 2.102452754077683e+01
7.071067811870000e-01 7.071067811870000e-01 2.071460183660000e+01
6.838453183460229e-01 7.295942079346670e-01 2.074696464333311e+01
6.598480721057267e-01 7.512814538456227e-01 2.077932938144144e+01
6.351460468114820e-01 7.721556764995201e-01 2.081169587741902e+01
6.097702468086593e-01 7.922040334760124e-01 2.084406395775992e+01
5.837516764426296e-01 8.114136823547528e-01 2.087643344895821e+01
4.573945845398235e-01 8.882386764163269e-01 2.102452754077683e+01
4.178924981901254e-01 9.074170705400918e-01 2.106845442881400e+01
3.776027030257300e-01 9.248874889763143e-01 2.111238170013888e+01
3.366026479860483e-01 9.406178513238939e-01 2.115630892133312e+01
2.949697820104922e-01 9.545760771817305e-01 2.120023565897844e+01
2.527815540384732e-01 9.667300861487240e-01 2.124416147965651e+01
6.456898117728429e-01 3.000000000000000e-01 2.278583752045245e+01
6.796657184913943e-01 3.000000000000000e-01 2.280363442397170e+01
7.136416252099458e-01 3.000000000000000e-01 2.282143132749095e+01
7.476175319284974e-01 3.000000000000000e-01 2.283922823101020e+01
7.815934386470498e-01 2.999999999999999e-01 2.285702513452945e+01
8.155693453656024e-01 3.000000000000000e-01 2.287482203804870e+01
4.285291039950258e-01 3.000000000000000e-01 2.267208667352115e+01
4.719612455505902e-01 3.000000000000000e-01 2.269483684290741e+01
5.153933871061536e-01 3.000000000000000e-01 2.271758701229367e+01
5.588255286617166e-01 2.999999999999999e-01 2.274033718167993e+01
6.022576702172793e-01 3.000000000000000e-01 2.276308735106619e+01
6.456898117728417e-01 2.999999999999999e-01 2.278583752045245e+01
1.000000000000000e-01 3.000000000000000e-01 2.250000000000000e+01
1.657058207990139e-01 3.000000000000000e-01 2.253441733470421e+01
2.314116415980225e-01 3.000000000000000e-01 2.256883466940844e+01
2.971174623970262e-01 3.000000000000000e-01 2.260325200411267e+01
3.628232831960262e-01 3.000000000000000e-01 2.263766933881691e+01
4.285291039950233e-01 3.000000000000000e-01 2.267208667352115e+01
1.053627568438918e+00 2.999999999999999e-01 2.299951920251566e+01
1.072902054751134e+00 3.000000000000000e-01 2.300961536201254e+01
1.092176541063350e+00 2.999999999999999e-01 2.301971152150940e+01
1.111451027375566e+00 3.000000000000000e-01 2.302980768100627e+01
1.130725513687783e+00 3.000000000000000e-01 2.303990384050314e+01
1.150000000000000e+00 3.000000000000000e-01 2.305000000000000e+01
8.155693453656018e-01 2.999999999999999e-01 2.287482203804870e+01
8.631809899802628e-01 2.999999999999999e-01 2.289976147094210e+01
9.107926345949260e-01 3.000000000000000e-01 2.292470090383550e+01
9.584042792095901e-01 3.000000000000000e-01 2.294964033672889e+01
1.006015923824257e+00 3.000000000000000e-01 2.297457976962229e+01
1.053627568438926e+00 3.000000000000000e-01 2.299951920251567e+01
1.312800678387913e+00 3.000000000000000e-01 2.313527654582218e+01
1.368399463031957e+00 3.000000000000000e-01 2.316439971873096e+01
1.423998247675998e+00 3.000000000000000e-01 2.319352289163975e+01
1.479597032320038e+00 3.000000000000000e-01 2.322264606454854e+01
1.535195816964076e+00 3.000000000000000e-01 2.325176923745734e+01
1.590794601608112e+00 3.000000000000000e-01 2.328089241036613e+01
1.590794601608110e+00 3.000000000000000e-01 2.328089241036613e+01
1.671831319508301e+00 2.999999999999999e-01 2.332334021498054e+01
1.752868037408492e+00 3.000000000000000e-01 2.336578801959495e+01
1.833904755308684e+00 3.000000000000000e-01 2.340823582420935e+01
1.914941473208879e+00 3.000000000000000e-01 2.345068362882376e+01
1.995978191109079e+00 3.000000000000000e-01 2.349313143343815e+01
1.995978191109072e+00 3.000000000000000e-01 2.349313143343815e+01
1.996782552887258e+00 3.000000000000000e-01 2.349355276579815e+01
1.997586914665443e+00 2.999999999999999e-01 2.349397409815815e+01
1.998391276443628e+00 3.000000000000000e-01 2.349439543051815e+01
1.999195638221814e+00 3.000000000000000e-01 2.349481676287816e+01
2.000000000000000e+00 3.000000000000000e-01 2.349523809523815e+01
1.150000000000000e+00 3.000000000000000e-01 2.305000000000000e+01
1.160969959244042e+00 2.999999999999999e-01 2.305574616912783e+01
1.171939918488083e+00 3.000000000000000e-01 2.306149233825565e+01
1.182909877732125e+00 3.000000000000000e-01 2.306723850738348e+01
1.193879836976166e+00 3.000000000000000e-01 2.307298467651130e+01
1.204849796220207e+00 3.000000000000000e-01 2.307873084563913e+01
1.204849796220205e+00 3.000000000000000e-01 2.307873084563913e+01
1.226439972653748e+00 3.000000000000000e-01 2.309003998567574e+01
1.248030149087291e+00 2.999999999999999e-01 2.310134912571235e+01
1.269620325520834e+00 3.000000000000000e-01 2.311265826574896e+01
1.291210501954375e+00 3.000000000000000e-01 2.312396740578557e+01
1.312800678387917e+00 3.000000000000000e-01 2.313527654582218e+01
        </DataArray>
      </Points>

      <Cells>
        <DataArray type="Int32" Name="connectivity" format="ascii">
0 1 2 3 4 5 6 7 8 9 10 11 12 13 14 15 16 17 18 19 20 21 22 23 24 25 26 27 28 29 30 31 32 33 34 35 36 37 38 39 40 41 42 43 44 45 46 47 48 49 50 51 52 53 54 55 56 57 58 59 60 61 62 63 64 65 66 67 68 69 70 71 72 73 74 75 76 77 78 79 80 81 82 83 84 85 86 87 88 89 90 91 92 93 94 95 96 97 98 99 100 101 102 103 104 105 106 107 108 109 110 111 112 113 114 115 116 117 118 119 120 121 122 123 124 125 126 127 128 129 130 131 132 133 134 135 136 137 138 139 140 141 142 143 144 145 146 147 148 149 150 151 152 153 154 155 156 157 158 159 160 161 162 163 164 165 166 167 
        </DataArray>
        <DataArray type="Int32" Name="offsets" format="ascii">
6 12 18 24 30 36 42 48 54 60 66 72 78 84 90 96 102 108 114 120 126 132 138 144 150 156 162 168 
        </DataArray>
        <DataArray type="UInt8" Name="types" format="ascii">
4 4 4 4 4 4 4 4 4 4 4 4 4 4 4 4 4 4 4 4 4 4 4 4 4 4 4 4 
        </DataArray>
      </Cells>

  <PointData>
        <DataArray type="Float64" Name="displacement" NumberOfComponents="3" format="ascii">
0.000000000000000e+00 0.000000000000000e+00 0.000000000000000e+00
-2.775557561562891e-17 -5.551115123125783e-17 0.000000000000000e+00
-8.326672684688674e-17 -5.551115123125783e-17 3.552713678800501e-15
-1.110223024625157e-16 -5.551115123125783e-17 0.000000000000000e+00
-5.551115123125783e-17 0.000000000000000e+00 3.552713678800501e-15
-1.110223024625157e-16 0.000000000000000e+00 3.552713678800501e-15
2.220446049250313e-16 1.110223024625157e-16 -3.552713678800501e-15
4.440892098500626e-16 1.110223024625157e-16 -3.552713678800501e-15
6.661338147750939e-16 1.110223024625157e-16 -3.552713678800501e-15
6.661338147750939e-16 1.110223024625157e-16 -3.552713678800501e-15
6.661338147750939e-16 5.551115123125783e-17 -3.552713678800501e-15
6.661338147750939e-16 5.551115123125783e-17 -3.552713678800501e-15
4.440892098500626e-16 1.110223024625157e-16 -3.552713678800501e-15
4.440892098500626e-16 1.110223024625157e-16 -3.552713678800501e-15
3.330669073875470e-16 1.110223024625157e-16 -3.552713678800501e-15
2.220446049250313e-16 1.665334536937735e-16 -3.552713678800501e-15
4.440892098500626e-16 1.665334536937735e-16 -3.552713678800501e-15
4.440892098500626e-16 1.110223024625157e-16 -3.552713678800501e-15
-5.551115123125783e-17 0.000000000000000e+00 0.000000000000000e+00
0.000000000000000e+00 0.000000000000000e+00 -3.552713678800501e-15
1.110223024625157e-16 0.000000000000000e+00 0.000000000000000e+00
0.000000000000000e+00 5.551115123125783e-17 0.000000000000000e+00
1.110223024625157e-16 0.000000000000000e+00 0.000000000000000e+00
0.000000000000000e+00 5.551115123125783e-17 -3.552713678800501e-15
0.000000000000000e+00 0.000000000000000e+00 -3.552713678800501e-15
1.110223024625157e-16 5.551115123125783e-17 -3.552713678800501e-15
1.110223024625157e-16 5.551115123125783e-17 -3.552713678800501e-15
2.220446049250313e-16 1.110223024625157e-16 0.000000000000000e+00
1.110223024625157e-16 1.110223024625157e-16 -3.552713678800501e-15
2.220446049250313e-16 1.665334536937735e-16 -3.552713678800501e-15
6.661338147750939e-16 5.551115123125783e-17 -3.552713678800501e-15
6.661338147750939e-16 5.551115123125783e-17 -3.552713678800501e-15
6.661338147750939e-16 5.551115123125783e-17 -3.552713678800501e-15
6.661338147750939e-16 5.551115123125783e-17 -3.552713678800501e-15
6.661338147750939e-16 0.000000000000000e+00 -3.552713678800501e-15
6.661338147750939e-16 5.551115123125783e-17 -3.552713678800501e-15
6.661338147750939e-16 0.000000000000000e+00 -3.552713678800501e-15
6.661338147750939e-16 0.000000000000000e+00 -7.105427357601002e-15
8.881784197001252e-16 0.000000000000000e+00 -3.552713678800501e-15
6.661338147750939e-16 0.000000000000000e+00 -7.105427357601002e-15
4.440892098500626e-16 -5.551115123125783e-17 -3.552713678800501e-15
4.440892098500626e-16 -5.551115123125783e-17 -3.552713678800501e-15
-1.110223024625157e-15 6.661338147750939e-16 3.552713678800501e-15
-1.554312234475219e-15 6.661338147750939e-16 3.552713678800501e-15
-1.554312234475219e-15 6.661338147750939e-16 0.000000000000000e+00
-1.554312234475219e-15 6.106226635438361e-16 3.552713678800501e-15
-1.110223024625157e-15 6.661338147750939e-16 0.000000000000000e+00
-1.110223024625157e-15 7.216449660063518e-16 3.552713678800501e-15
4.440892098500626e-16 0.000000000000000e+00 -3.552713678800501e-15
2.220446049250313e-16 0.000000000000000e+00 0.000000000000000e+00
2.220446049250313e-16 0.000000000000000e+00 -7.105427357601002e-15
2.220446049250313e-16 0.000000000000000e+00 -3.552713678800501e-15
-4.440892098500626e-16 5.551115123125783e-17 -7.105427357601002e-15
-4.440892098500626e-16 5.551115123125783e-17 0.000000000000000e+00
-4.440892098500626e-16 1.110223024625157e-16 0.000000000000000e+00
-8.881784197001252e-16 1.110223024625157e-16 3.552713678800501e-15
-1.332267629550188e-15 2.775557561562891e-16 3.552713678800501e-15
-1.110223024625157e-15 2.775557561562891e-16 3.552713678800501e-15
-1.332267629550188e-15 4.996003610813204e-16 3.552713678800501e-15
-1.332267629550188e-15 6.661338147750939e-16 3.552713678800501e-15
3.321229414243732e-04 4.961913584049515e-04 9.585867903183498e-05
3.289450815677775e-04 4.990878126858167e-04 9.423174188327721e-05
3.261895265619374e-04 5.023738697602642e-04 9.241346203481271e-05
3.238662850224561e-04 5.060566593273474e-04 9.039974534275075e-05
3.219853655639371e-04 5.101433110862308e-04 8.818649768116416e-05
3.205567768014284e-04 5.146409547357456e-04 8.576962489215134e-05
4.737403331901424e-04 5.108693452788859e-04 9.381828120780256e-05
4.356982512856433e-04 4.980276982508025e-04 9.882667411176271e-05
4.018262044863663e-04 4.896480726491736e-04 1.018168628661442e-04
3.728134594630506e-04 4.862214718743818e-04 1.025068949473962e-04
3.493492828856581e-04 4.882388993263653e-04 1.006148178461785e-04
3.321229414243732e-04 4.961913584049515e-04 9.585867903538769e-05
9.498405400248933e-04 9.214206762195032e-04 5.356140900047990e-05
1.060426482475063e-03 9.497327263021660e-04 -2.592218123709245e-06
1.090390493277194e-03 9.326405877904398e-04 -2.828575290791946e-05
1.055516670504630e-03 8.813881611314245e-04 -2.997586363306937e-05
9.715891122284992e-04 8.072193467724698e-04 -1.411921858718301e-05
8.543919165221459e-04 7.213780451604812e-04 1.282751395592641e-05
8.543919165222569e-04 7.213780451605922e-04 1.282751395592641e-05
7.777709099234809e-04 6.709120550548731e-04 3.090514671555411e-05
6.983596009728643e-04 6.224657277634771e-04 4.928480654342593e-05
6.191936369885909e-04 5.782015255367812e-04 6.672472671453988e-05
5.433086652879560e-04 5.402819106251622e-04 8.198314051810485e-05
4.737403331901424e-04 5.108693452788859e-04 9.381828120780256e-05
1.183305172782201e-04 2.674591457766384e-04 1.704705963945230e-05
9.382747619229859e-05 2.092666230197882e-04 1.632395265716013e-05
6.949020416485707e-05 1.517833039047511e-04 1.472406674452031e-05
4.557140095257095e-05 9.665033159034220e-05 1.178102835552863e-05
2.232376631208094e-05 4.550884923570919e-05 7.028463954839026e-06
0.000000000000000e+00 0.000000000000000e+00 0.000000000000000e+00
2.765194805780524e-04 5.586840718464492e-04 3.845303601579531e-05
2.661651327449110e-04 5.514341633852116e-04 3.341401279755019e-05
2.552223827828604e-04 5.402398460335744e-04 2.926969593985973e-05
2.437402262207566e-04 5.254193182683276e-04 2.592966105297023e-05
2.317676585881778e-04 5.072907785669267e-04 2.330348377199698e-05
2.193536754143133e-04 4.861724254062727e-04 2.130073971429169e-05
3.205567768014284e-04 5.146409547357456e-04 8.576962489215134e-05
3.136559761286462e-04 5.361262818138757e-04 7.324431772204321e-05
3.057378761467389e-04 5.508578076498516e-04 6.236806601478406e-05
2.968664468788740e-04 5.592509816577662e-04 5.302280900565393e-05
2.871056583482190e-04 5.617212532519344e-04 4.509048592638010e-05
2.765194805780524e-04 5.586840718465602e-04 3.845303601579531e-05
2.193536754143133e-04 4.861724254062727e-04 2.130073971429169e-05
2.002359168539192e-04 4.500297120538788e-04 1.928522490146634e-05
1.804149244675202e-04 4.090492336432661e-04 1.814701559510468e-05
1.600504955477922e-04 3.642687839461312e-04 1.759119568589540e-05
1.393024273872445e-04 3.167261567333934e-04 1.732284907163262e-05
1.183305172782756e-04 2.674591457766384e-04 1.704705963945230e-05
1.554312234475219e-15 -1.831867990631508e-15 -3.552713678800501e-15
1.554312234475219e-15 -2.053912595556540e-15 0.000000000000000e+00
1.887379141862766e-15 -2.220446049250313e-15 0.000000000000000e+00
1.887379141862766e-15 -2.442490654175344e-15 0.000000000000000e+00
1.776356839400250e-15 -2.609024107869118e-15 -3.552713678800501e-15
1.887379141862766e-15 -2.831068712794149e-15 0.000000000000000e+00
8.326672684688674e-16 -7.216449660063518e-16 0.000000000000000e+00
9.436895709313831e-16 -8.881784197001252e-16 3.552713678800501e-15
1.221245327087672e-15 -1.165734175856414e-15 -3.552713678800501e-15
1.221245327087672e-15 -1.332267629550188e-15 0.000000000000000e+00
1.443289932012704e-15 -1.665334536937735e-15 0.000000000000000e+00
1.665334536937735e-15 -1.776356839400250e-15 0.000000000000000e+00
0.000000000000000e+00 0.000000000000000e+00 0.000000000000000e+00
5.551115123125783e-17 0.000000000000000e+00 0.000000000000000e+00
1.665334536937735e-16 -1.110223024625157e-16 -3.552713678800501e-15
3.330669073875470e-16 -1.665334536937735e-16 3.552713678800501e-15
6.106226635438361e-16 -3.885780586188048e-16 0.000000000000000e+00
7.771561172376096e-16 -7.216449660063518e-16 0.000000000000000e+00
1.110223024625157e-15 -3.885780586188048e-15 3.552713678800501e-15
1.110223024625157e-15 -3.996802888650564e-15 0.000000000000000e+00
8.881784197001252e-16 -3.941291737419306e-15 3.552713678800501e-15
6.661338147750939e-16 -4.107825191113079e-15 3.552713678800501e-15
6.661338147750939e-16 -4.107825191113079e-15 3.552713678800501e-15
4.440892098500626e-16 -4.163336342344337e-15 3.552713678800501e-15
1.887379141862766e-15 -2.775557561562891e-15 -7.105427357601002e-15
1.776356839400250e-15 -2.997602166487923e-15 0.000000000000000e+00
1.776356839400250e-15 -3.330669073875470e-15 0.000000000000000e+00
1.665334536937735e-15 -3.608224830031759e-15 0.000000000000000e+00
1.554312234475219e-15 -3.774758283725532e-15 0.000000000000000e+00
1.110223024625157e-15 -3.996802888650564e-15 3.552713678800501e-15
-4.440892098500626e-16 -4.496403249731884e-15 7.105427357601002e-15
-4.440892098500626e-16 -4.607425552194400e-15 7.105427357601002e-15
-6.661338147750939e-16 -4.829470157119431e-15 3.552713678800501e-15
-2.220446049250313e-16 -5.051514762044462e-15 1.065814103640150e-14
-4.440892098500626e-16 -5.273559366969494e-15 7.105427357601002e-15
0.000000000000000e+00 -5.606626274357041e-15 3.552713678800501e-15
0.000000000000000e+00 -5.551115123125783e-15 7.105427357601002e-15
4.440892098500626e-16 -5.995204332975845e-15 3.552713678800501e-15
8.881784197001252e-16 -6.605826996519681e-15 3.552713678800501e-15
1.776356839400250e-15 -7.216449660063518e-15 3.552713678800501e-15
2.442490654175344e-15 -7.938094626069869e-15 -3.552713678800501e-15
3.108624468950438e-15 -8.826273045769994e-15 -3.552713678800501e-15
3.330669073875470e-15 -8.881784197001252e-15 0.000000000000000e+00
3.330669073875470e-15 -8.881784197001252e-15 -3.552713678800501e-15
3.552713678800501e-15 -8.826273045769994e-15 -7.105427357601002e-15
3.774758283725532e-15 -8.826273045769994e-15 -3.552713678800501e-15
3.774758283725532e-15 -8.826273045769994e-15 -3.552713678800501e-15
3.108624468950438e-15 -8.881784197001252e-15 0.000000000000000e+00
4.440892098500626e-16 -4.163336342344337e-15 3.552713678800501e-15
4.440892098500626e-16 -4.163336342344337e-15 3.552713678800501e-15
2.220446049250313e-16 -4.218847493575595e-15 3.552713678800501e-15
2.220446049250313e-16 -4.218847493575595e-15 3.552713678800501e-15
0.000000000000000e+00 -4.329869796038111e-15 3.552713678800501e-15
-2.220446049250313e-16 -4.274358644806853e-15 7.105427357601002e-15
-4.440892098500626e-16 -4.329869796038111e-15 3.552713678800501e-15
0.000000000000000e+00 -4.329869796038111e-15 3.552713678800501e-15
-2.220446049250313e-16 -4.329869796038111e-15 3.552713678800501e-15
-4.440892098500626e-16 -4.440892098500626e-15 7.105427357601002e-15
-6.661338147750939e-16 -4.496403249731884e-15 0.000000000000000e+00
-6.661338147750939e-16 -4.551914400963142e-15 7.105427357601002e-15
        </DataArray>
        <DataArray type="Float64" Name="lambda" NumberOfComponents="3" format="ascii">
-4.507116086282452e-15 8.609483543811989e-16 6.695502740048208e-14
-4.205735635066473e-15 1.673415997292588e-16 6.153560471007712e-14
-3.767041519922802e-15 -4.675889724116947e-16 5.563866295826373e-14
-3.191033740851439e-15 -1.043843362041661e-15 4.926420214504190e-14
-2.477712297852384e-15 -1.561421569160641e-15 4.241222227041165e-14
-1.627077190925635e-15 -2.020323593768633e-15 3.508272333437297e-14
1.333271666278795e-14 -3.451674751733118e-15 -5.852836799138851e-14
1.399150496577060e-14 -3.411409135757143e-15 -6.210167014469660e-14
1.466210930162685e-14 -3.366094352192047e-15 -6.571606348125607e-14
1.534452967035671e-14 -3.315730401037831e-15 -6.937154800106693e-14
1.603876607196016e-14 -3.260317282294493e-15 -7.306812370412919e-14
1.674481850643722e-14 -3.199854995962034e-15 -7.680579059044283e-14
6.170268794052715e-15 -3.532697271574035e-15 -1.778259544902206e-14
7.458559308255546e-15 -3.578111182654384e-15 -2.543028639152582e-14
8.818949352230505e-15 -3.592715886210466e-15 -3.332870911701447e-14
1.025143892597760e-14 -3.576511382242280e-15 -4.147786362548799e-14
1.175602802949681e-14 -3.529497670749827e-15 -4.987774991694639e-14
1.333271666278816e-14 -3.451674751733106e-15 -5.852836799138966e-14
-1.627077190925635e-15 -2.020323593768633e-15 3.508272333437297e-14
-9.894184762861749e-16 -2.291450458354977e-15 2.997571416104413e-14
-2.917628971803436e-16 -2.536939765331836e-15 2.466006117479865e-14
4.658895463918601e-16 -2.756791514699209e-15 1.913576437563649e-14
1.283538854430435e-15 -2.951005706457095e-15 1.340282376355768e-14
2.161185026935383e-15 -3.119582340605497e-15 7.461239338562201e-15
2.161185026935360e-15 -3.119582340605493e-15 7.461239338562350e-15
2.889570995122234e-15 -3.233583399696127e-15 2.667833709566515e-15
3.654672355927400e-15 -3.331895422338297e-15 -2.253252583689810e-15
4.456489109350860e-15 -3.414518408532004e-15 -7.302019541206623e-15
5.295021255392612e-15 -3.481452358277250e-15 -1.247846716298392e-14
6.170268794052659e-15 -3.532697271574033e-15 -1.778259544902172e-14
1.674481850643722e-14 -3.199854995962034e-15 -7.680579059044283e-14
1.633185614440033e-14 -3.210183939815872e-15 -7.973133759589210e-14
1.592924836989289e-14 -3.216548397316776e-15 -8.252993985517946e-14
1.553699518291490e-14 -3.218948368464747e-15 -8.520159736830490e-14
1.515509658346634e-14 -3.217383853259783e-15 -8.774631013526842e-14
1.478355257154725e-14 -3.211854851701887e-15 -9.016407815607002e-14
1.478355257154726e-14 -3.211854851701887e-15 -9.016407815606993e-14
1.408255375803374e-14 -3.189393636629817e-15 -9.455175070999223e-14
1.342166332792176e-14 -3.151576026319270e-15 -9.844770415531723e-14
1.280088128121130e-14 -3.098402020770245e-15 -1.018519384920449e-13
1.222020761790237e-14 -3.029871619982743e-15 -1.047644537201753e-13
1.167964233799496e-14 -2.945984823956762e-15 -1.071852498397084e-13
1.528894473594078e-14 7.639415984612224e-15 7.016707876368346e-14
1.531686375263716e-14 7.660941452106686e-15 7.066607260043184e-14
1.534483843989813e-14 7.682488234326909e-15 7.116574894487744e-14
1.537286879772370e-14 7.704056331272898e-15 7.166610779702029e-14
1.540095482611386e-14 7.725645742944648e-15 7.216714915686037e-14
1.542909652506860e-14 7.747256469342161e-15 7.266887302439769e-14
1.167964233799498e-14 -2.945984823956765e-15 -1.071852498397083e-13
1.047221925836163e-14 -2.659268937788863e-15 -1.111556807265542e-13
9.530778867473862e-15 -2.270715606464427e-15 -1.118652279895711e-13
8.855321165331674e-15 -1.780324829983459e-15 -1.093138916287590e-13
8.445846151935069e-15 -1.188096608345957e-15 -1.035016716441180e-13
8.302353827284044e-15 -4.940309415519220e-16 -9.442856803564796e-14
8.302353827284044e-15 -4.940309415519134e-16 -9.442856803564783e-14
8.569573095600566e-15 6.999746977608098e-16 -7.536417883740994e-14
9.401841820624501e-15 2.110322210033586e-15 -4.937241955835785e-14
1.079916000235585e-14 3.737011595266415e-15 -1.645329019849156e-14
1.276152764079461e-14 5.580042853459296e-15 2.339320924218890e-14
1.528894473594078e-14 7.639415984612230e-15 7.016707876368361e-14
3.616759287581455e-04 5.169319404735883e-04 9.498929052042103e-05
3.845957810671830e-04 5.400672696164146e-04 9.540715003104673e-05
4.079333376376323e-04 5.635721762953999e-04 9.580187362438765e-05
4.316885984694933e-04 5.874466605105438e-04 9.617346130044381e-05
4.558615635627662e-04 6.116907222618468e-04 9.652191305921525e-05
4.804522329174505e-04 6.363043615493083e-04 9.684722890070189e-05
-1.605416804374487e-05 1.241851660683641e-04 8.132940182766307e-05
4.545592432536095e-05 1.903157744956215e-04 8.483880530946059e-05
1.139839801901028e-04 2.626557561497726e-04 8.795949591963517e-05
1.895299995504808e-04 3.412051110308173e-04 9.069147365818675e-05
2.720939824064947e-04 4.259638391387556e-04 9.303473852511537e-05
3.616759287581448e-04 5.169319404735876e-04 9.498929052042102e-05
4.448386242134087e-04 2.697911225392743e-04 -9.908641201133573e-05
1.915405427586568e-04 7.892362426220497e-05 -6.541610706476661e-05
-5.164097839290807e-06 -6.187097228310905e-05 -3.488041501895603e-05
-1.452752975804340e-04 -1.525926670966678e-04 -7.479335873903936e-06
-2.287930564647729e-04 -1.932414601784713e-04 1.678713037038963e-05
-2.557173744923074e-04 -1.838173515285196e-04 3.791898371392470e-05
-2.557173744923074e-04 -1.838173515285205e-04 3.791898371392419e-05
-2.454971001284267e-04 -1.555841007253569e-04 4.868989017716625e-05
-2.164206423016296e-04 -1.106672235640862e-04 5.841638522016119e-05
-1.684880010119164e-04 -4.906672004470852e-05 6.709846884290900e-05
-1.016991762592869e-04 2.921740983277625e-05 7.473614104540971e-05
-1.605416804374135e-05 1.241851660683679e-04 8.132940182766327e-05
-1.625003215664680e-04 -2.351796913487972e-04 -2.051611030885480e-05
-1.036490569612472e-04 -1.047371067651553e-04 2.679924656672381e-05
-2.347680836954931e-05 6.353515018521488e-05 8.445186249568797e-05
7.801642420862540e-05 2.696370795023133e-04 1.524417374780376e-04