<?xml version="1.0" ?> 
<!-- 
# vtk DataFile Version 3.0
-->
<VTKFile type="UnstructuredGrid" version="0.1" compressor="vtkZLibDataCompressor" byte_order="LittleEndian">
  <UnstructuredGrid>
    <FieldData>
      <DataArray type="Float64" Name="TIME" NumberOfTuples="1" format="ascii">
3.000000000000000e+00 
      </DataArray>
    </FieldData>

    <Piece NumberOfPoints="120" NumberOfCells="0" >
      <Points>
        <DataArray type="Float64" NumberOfComponents="3" format="ascii">
9.961533271253296e-01 8.592418384217468e-02 1.001528337982333e+01
9.887948166356072e-01 1.468155374228861e-01 1.007667799810775e+01
9.699057734528997e-01 2.404816442778351e-01 1.017233230912582e+01
9.380670753122615e-01 3.436214899181053e-01 1.028036454912662e+01
9.009383449563291e-01 4.317257829632457e-01 1.037602838147731e+01
8.728438351827581e-01 4.862941241983075e-01 1.043743382419883e+01
8.645497179204786e-01 5.009905353632849e-01 1.045431690383089e+01
8.613358063732843e-01 5.065360022143091e-01 1.046072952187738e+01
8.562595335065574e-01 5.151341387642764e-01 1.047071954014461e+01
8.504256031897974e-01 5.247830668037858e-01 1.048200134778862e+01
8.451705116297211e-01 5.332719929200118e-01 1.049199119819850e+01
8.417533079831605e-01 5.386933026265446e-01 1.049840362541443e+01
8.369844012614820e-01 5.461338450610067e-01 1.050724705186044e+01
8.208293326309556e-01 5.703233495082329e-01 1.053635688252727e+01
7.942826731309308e-01 6.070389578834090e-01 1.058170455032927e+01
7.623226018624459e-01 6.469891358993187e-01 1.063291314006692e+01
7.323077742785250e-01 6.809298918796346e-01 1.067825441533943e+01
7.122098786564531e-01 7.019647732937933e-01 1.070735697858518e+01
7.008269703339561e-01 7.133286624821875e-01 1.072344259343094e+01
6.750380656917323e-01 7.377237166737388e-01 1.075895613753968e+01
6.331395642194489e-01 7.737907594583106e-01 1.081428630311222e+01
5.834721328776665e-01 8.116130623035265e-01 1.087677708285518e+01
5.375825449257672e-01 8.424573708020121e-01 1.093211597897423e+01
5.072563274668751e-01 8.609148991255213e-01 1.096763944850574e+01
4.989181105624448e-01 8.657388507081265e-01 1.097727724631408e+01
4.961485477194869e-01 8.673179129659631e-01 1.098046681264573e+01
4.918240125478445e-01 8.697606269088552e-01 1.098543578112653e+01
4.869258747743079e-01 8.724938773772734e-01 1.099104734105223e+01
4.825760223286064e-01 8.748916482911799e-01 1.099601634154254e+01
4.797776772498691e-01 8.764196165467997e-01 1.099920594426457e+01
4.641820757010020e-01 8.847293964108308e-01 1.101688397738750e+01
4.030747554851742e-01 9.140811066120945e-01 1.108470553458853e+01
3.043774023409630e-01 9.515951681561912e-01 1.119036371809793e+01
1.889884020163060e-01 9.814371024917952e-01 1.130967930607106e+01
8.453087395121323e-02 9.962767781175120e-01 1.141532014147873e+01
1.687503226679491e-02 9.998508504843170e-01 1.148312197628971e+01
1.135060971593723e-01 2.999999999999999e-01 1.250707462232157e+01
1.677581227067585e-01 3.000000000000000e-01 1.253549234998922e+01
2.522761627833782e-01 3.000000000000000e-01 1.257976370431505e+01
3.477238372166552e-01 3.000000000000000e-01 1.262976010520866e+01
4.322418772932616e-01 3.000000000000000e-01 1.267403145953451e+01
4.864939028406324e-01 3.000000000000000e-01 1.270244918720220e+01
1.001841740521729e+00 3.000000000000000e-01 1.297239329265430e+01
1.009239744005450e+00 3.000000000000000e-01 1.297626843733625e+01
1.020764931288605e+00 3.000000000000000e-01 1.298230544019885e+01
1.033780523256758e+00 3.000000000000000e-01 1.298912313122978e+01
1.045305710539913e+00 3.000000000000000e-01 1.299516013409238e+01
1.052703714023634e+00 3.000000000000000e-01 1.299903527877433e+01
1.057768500458404e+00 2.999999999999999e-01 1.300168826214492e+01
1.070715006554948e+00 3.000000000000000e-01 1.300846976533834e+01
1.090884084300521e+00 3.000000000000000e-01 1.301903452034792e+01
1.113661370244846e+00 3.000000000000000e-01 1.303096547965208e+01
1.133830447990420e+00 3.000000000000000e-01 1.304153023466166e+01
1.146776954086965e+00 3.000000000000000e-01 1.304831173785508e+01
5.168826214492116e-01 2.999999999999999e-01 1.271836708742574e+01
5.846976533834307e-01 3.000000000000000e-01 1.275388924701036e+01
6.903452034791926e-01 3.000000000000000e-01 1.280922843991769e+01
8.096547965207879e-01 3.000000000000000e-01 1.287172394103475e+01
9.153023466165575e-01 3.000000000000000e-01 1.292706313394207e+01
9.831173785507862e-01 3.000000000000000e-01 1.296258529352666e+01
1.516882621449212e+00 3.000000000000000e-01 1.324217661123526e+01
1.584697653383433e+00 3.000000000000000e-01 1.327769877081987e+01
1.690345203479197e+00 2.999999999999999e-01 1.333303796372720e+01
1.809654796520792e+00 3.000000000000000e-01 1.339553346484426e+01
1.915302346616560e+00 3.000000000000000e-01 1.345087265775159e+01
1.983117378550787e+00 3.000000000000000e-01 1.348639481733619e+01
1.161817835014451e+00 3.000000000000000e-01 1.305619029453137e+01
1.209288357368413e+00 3.000000000000000e-01 1.308105580624057e+01
1.283241642435455e+00 3.000000000000000e-01 1.311979324127566e+01
1.366758357564572e+00 3.000000000000000e-01 1.316354009205757e+01
1.440711642631603e+00 3.000000000000000e-01 1.320227752709269e+01
1.488182164985553e+00 3.000000000000000e-01 1.322714303880191e+01
9.070650653464133e-01 4.186580795705814e-01 1.536159206949254e+01
8.950822480933278e-01 4.437871811380311e-01 1.538943997793707e+01
8.750665984999541e-01 4.822566682076080e-01 1.543282304887479e+01
8.505228397998896e-01 5.246242147514946e-01 1.548181499091760e+01
8.271062642445691e-01 5.611040165915592e-01 1.552519528674441e+01
8.112570649838536e-01 5.839711214974205e-01 1.555304004027200e+01
7.275873491051746e-01 6.859859961160715e-01 1.568517449687871e+01
7.247521355521293e-01 6.889880931486068e-01 1.568930530326774e+01
7.203093460059936e-01 6.936408674444844e-01 1.569574053183864e+01
7.152542474285263e-01 6.988597192898016e-01 1.570300785067449e+01
7.107446622751689e-01 7.034491651496845e-01 1.570944290890665e+01
7.078335113636389e-01 7.063792665174387e-01 1.571357352164412e+01
8.047480006274301e-01 5.929820465956064e-01 1.556416501674273e+01
7.947030023280517e-01 6.064842593421638e-01 1.558100800547163e+01
7.786014622191854e-01 6.271728323038163e-01 1.560724656980361e+01
7.597623654922834e-01 6.500113759529554e-01 1.563687701812151e+01
7.425078079475019e-01 6.697511039947798e-01 1.566311333146466e+01
7.311519884427850e-01 6.821746114219317e-01 1.567995376113089e+01
9.964710584863027e-01 8.229064145285635e-02 1.501163316895894e+01
9.911975134564597e-01 1.301006405463192e-01 1.505977710265705e+01
9.783819180697664e-01 2.039295720035984e-01 1.513478546173187e+01
9.573494102149177e-01 2.859207355439163e-01 1.521950005241701e+01
9.330942688524111e-01 3.568682511480752e-01 1.529451728170782e+01
9.148155436947953e-01 4.014024793086637e-01 1.534267129961355e+01
2.456706147871300e-01 9.685860668876521e-01 1.625151436836198e+01
2.117621839604177e-01 9.766857771015962e-01 1.628639876549158e+01
1.584443528898253e-01 9.869517261869983e-01 1.634074210102360e+01
9.767303617151152e-02 9.950324862350789e-01 1.640210868125585e+01
4.352888424665127e-02 9.990099379312982e-01 1.645644352172519e+01
8.681041001315897e-03 9.999604971691232e-01 1.649131826114454e+01
7.032302953698305e-01 7.109611073671974e-01 1.572006860832487e+01
6.874415638215612e-01 7.262157416548995e-01 1.574202842258868e+01
6.621689056486519e-01 7.492468447135284e-01 1.577624091132848e+01
6.326790676025325e-01 7.741647783239105e-01 1.581488003596214e+01
6.057664368660205e-01 7.952460311085787e-01 1.584909650038570e+01
5.881132835444265e-01 8.082839555645570e-01 1.587106083445158e+01
5.796019662720782e-01 8.143585406054136e-01 1.588152591463934e+01
5.631007286989683e-01 8.257595169715606e-01 1.590159819532316e+01
5.369463558964163e-01 8.428597115262899e-01 1.593286919017773e+01
5.067854825846104e-01 8.611901175011326e-01 1.596818510259591e+01
4.795565402838006e-01 8.765398791833163e-01 1.599945776696466e+01
4.618336659504381e-01 8.859508556965703e-01 1.601953194565498e+01
4.508226801951268e-01 8.915755801675478e-01 1.603190039367914e+01
4.241931068641716e-01 9.044973838509488e-01 1.606150854053305e+01
3.819921466587786e-01 9.230828702861960e-01 1.610763478259903e+01
3.333858177553337e-01 9.417676085393819e-01 1.615972590970380e+01
2.896054468963422e-01 9.562312010189161e-01 1.620585154067648e+01
2.611803022997792e-01 9.644669818938103e-01 1.623545899280192e+01
        </DataArray>
      </Points>

      <Cells>
        <DataArray type="Int32" Name="connectivity" format="ascii">

        </DataArray>
        <DataArray type="Int32" Name="offsets" format="ascii">

        </DataArray>
        <DataArray type="UInt8" Name="types" format="ascii">

        </DataArray>
      </Cells>

  <PointData>
        <DataArray type="Float64" Name="displacement" NumberOfComponents="3" format="ascii">
3.353302367924580e-01 3.505042422222082e-01 3.485451734830569e-02
2.851999581856682e-01 3.288918175656022e-01 2.588931831117591e-02
2.176155260940280e-01 2.957365364018356e-01 1.475960456794034e-02
1.552419929612627e-01 2.590787884011159e-01 5.788633309698810e-03
1.109187112319252e-01 2.273458068059079e-01 4.740306840638198e-04
8.723314040292274e-02 2.073503398610735e-01 -1.880192033960171e-03
8.131691745116321e-02 2.019050880113352e-01 -2.404548804483042e-03
7.913401107491613e-02 1.998428316180888e-01 -2.591027430458581e-03
7.580242496833722e-02 1.966367023447547e-01 -2.868142745857227e-03
7.213958611416893e-02 1.930256895592022e-01 -3.162109332794927e-03
6.898270559082964e-02 1.898368178193124e-01 -3.406237745057439e-03
6.699841527715700e-02 1.877941808525255e-01 -3.555214828752540e-03
6.431501527508487e-02 1.849826745216020e-01 -3.751083083649576e-03
5.590519201909372e-02 1.757734387964036e-01 -4.321989686285832e-03
4.402765698491173e-02 1.615673244467564e-01 -5.012561079345446e-03
3.225267155348777e-02 1.457336599171032e-01 -5.560581774501472e-03
2.312290450021592e-02 1.319020481364304e-01 -5.899888985632984e-03
1.783691304809332e-02 1.231185699874611e-01 -6.071456841077350e-03
1.509895454837329e-02 1.183063336654041e-01 -6.152895529552893e-03
9.630348232273267e-03 1.079954580746980e-01 -6.229386065946585e-03
2.626280495992783e-03 9.283827100324893e-02 -6.079739142711205e-03
-3.261604723037159e-03 7.705755594973362e-02 -5.582702227384218e-03
-6.882269151072595e-03 6.427718911564884e-02 -4.917752914012752e-03
-8.504414291033102e-03 5.666842909697856e-02 -4.408415969304968e-03
-8.857500333241120e-03 5.468475042284449e-02 -4.261648508270710e-03
-8.966518621711939e-03 5.403586137721428e-02 -4.212385214623637e-03
-9.128720884925945e-03 5.303250175011287e-02 -4.134995506188233e-03
-9.300859681921014e-03 5.191042634405840e-02 -4.046703042051902e-03
-9.443654945375080e-03 5.092661811019183e-02 -3.967775932045114e-03
-9.530610161749498e-03 5.029995629204997e-02 -3.916764825650176e-03
-9.947517349787494e-03 4.689551225125987e-02 -3.629665044913466e-03
-1.061464698323916e-02 3.491961893046591e-02 -2.489305874963321e-03
-9.319309729526992e-03 1.972267284998930e-02 -7.933679217106970e-04
-5.810814745990128e-03 7.696176671152855e-03 5.470234832234411e-04
-2.266154906077483e-03 1.662627603472133e-03 7.681203297522643e-04
-3.761161465831234e-04 1.042481408036755e-04 2.317893326839737e-04
-3.356063193967057e-04 6.920701031498666e-05 -1.271934003579389e-04
-2.240809934423965e-03 2.163173086662307e-03 -2.157568273037924e-04
-6.923978177280327e-03 1.095830012669763e-02 8.801879942819113e-04
-1.458397336428424e-02 2.840628708384174e-02 3.669035281015809e-03
-2.332586780416906e-02 4.992333624868545e-02 7.256132237223767e-03
-2.984528123078051e-02 6.648036660699291e-02 9.999663921822943e-03
-1.204644828343658e-01 3.027374075326561e-01 4.103816569879548e-02
-1.220653211097813e-01 3.068433891344712e-01 4.140733505193239e-02
-1.245720746372133e-01 3.132632696704438e-01 4.197073374793625e-02
-1.274214468189456e-01 3.205459288728313e-01 4.258917261148376e-02
-1.299605225052559e-01 3.270220134608502e-01 4.312036877234426e-02
-1.315981066007604e-01 3.311918912891690e-01 4.345292830102565e-02
-1.327226652264422e-01 3.340522428476653e-01 4.367671326153477e-02
-1.356097533549624e-01 3.413835988691884e-01 4.423399906025338e-02
-1.401424364880351e-01 3.528578939672749e-01 4.505831448703113e-02
-1.453105513473671e-01 3.658855516857489e-01 4.592150184096866e-02
-1.499285934384238e-01 3.774750101472577e-01 4.662239702053839e-02
-1.529127228854060e-01 3.849372909702191e-01 4.703937108400424e-02
-3.379207028549974e-02 7.662895120333590e-02 1.165940209829763e-02
-4.332799525648667e-02 1.013918203040796e-01 1.561706067391100e-02
-6.005737718170789e-02 1.452445926106226e-01 2.224334983060494e-02
-8.141940712725404e-02 2.013459219058166e-01 2.990136166832613e-02
-1.022470846763753e-01 2.556993545903740e-01 3.633735769130908e-02
-1.164422044194607e-01 2.924000208699026e-01 4.007867931734310e-02
-2.478164285152797e-01 6.220463253267554e-01 4.772453172500590e-02
-2.673434050678767e-01 6.703400385968104e-01 4.551373829082905e-02
-2.991543184218894e-01 7.483162238195235e-01 4.064115748708197e-02
-3.371711921004101e-01 8.401915008329111e-01 3.305690275802142e-02
-3.727435830474244e-01 9.247265870730990e-01 2.450838203833960e-02
-3.965468388987803e-01 9.804768628110034e-01 1.811855380271865e-02
-1.564014887805756e-01 3.936458466338641e-01 4.749037096805075e-02
-1.676097833634658e-01 4.216655145571188e-01 4.867741684638283e-02
-1.856792101466418e-01 4.669171943831390e-01 4.981313905478935e-02
-2.069954289225837e-01 5.202966954177262e-01 5.005427853816435e-02
-2.266958831447625e-01 5.695111641869306e-01 4.934920266549447e-02
-2.397584301326361e-01 6.020359745453328e-01 4.844351595863650e-02
5.598819251655240e-02 1.150599377017930e-01 4.297310823984546e-03
5.011232406159927e-02 1.114300057621428e-01 3.621120224446273e-03
4.184368406027861e-02 1.057710501137767e-01 2.656586992433319e-03
3.361669317090910e-02 9.939142135710433e-02 1.634522078074241e-03
2.712992039339890e-02 9.376910320491449e-02 7.260169725196164e-04
2.327978829707666e-02 9.018082302646258e-02 1.135225964503661e-04
6.884966894352806e-03 7.350546442575423e-02 -3.603868423589063e-03
6.390846381191251e-03 7.299641155087988e-02 -3.752382165499668e-03
5.619986523007880e-03 7.220515901295721e-02 -3.988773314272720e-03
4.747252688204084e-03 7.131426048736944e-02 -4.263298918361969e-03
3.971910686320301e-03 7.052780340001630e-02 -4.513293339510227e-03
3.472694596262205e-03 7.002420228857564e-02 -4.677272118922104e-03
2.179789005760335e-02 8.875277638121459e-02 -1.417414371829295e-04
1.960660323529506e-02 8.659764331811193e-02 -5.427157622417411e-04
1.629748510273710e-02 8.325876728442838e-02 -1.209285619522049e-03
1.267261518260787e-02 7.951904553742883e-02 -2.037362792774999e-03
9.521080869388965e-03 7.623869079828383e-02 -2.851243062378828e-03
7.508945034371384e-03 7.415008834560888e-02 -3.419688933156806e-03
1.867098062087321e-01 1.587765826860791e-01 2.304631048130190e-02
1.608383703460892e-01 1.531199163886648e-01 1.878530822860824e-02
1.262617961780730e-01 1.440145350417467e-01 1.345868177754284e-02
9.464339724551085e-02 1.333901228065450e-01 9.038357034201638e-03
7.226496243985081e-02 1.237674058474940e-01 6.211047074845766e-03
6.026112236872994e-02 1.175226005770360e-01 4.791421677463603e-03
-1.308788707254199e-02 -1.862880065840566e-03 -4.417617846414146e-03
-1.170212950836930e-02 -4.036334006260023e-03 -3.667991375227331e-03
-9.188175455291964e-03 -6.036520828848202e-03 -2.531361090920115e-03
-5.914059319531470e-03 -5.990764860836162e-03 -1.366942928033410e-03
-2.714629163447231e-03 -3.634551530207530e-03 -5.149125288390621e-04
-5.495801648297636e-04 -8.553815796941144e-04 -8.883672811066390e-05
2.692481598514984e-03 6.922868636876789e-02 -4.934956006659164e-03
1.841891932546913e-04 6.644469995240954e-02 -5.737699811987795e-03
-3.331906949899377e-03 6.184610073822150e-02 -6.783885394050060e-03
-6.750518247331194e-03 5.633852165307662e-02 -7.684368782065576e-03
-9.309946292165305e-03 5.125195864822862e-02 -8.251274573956024e-03
-1.073063950708630e-02 4.791322495371975e-02 -8.509143607509984e-03
-1.134821671657504e-02 4.630804602964833e-02 -8.604400831760728e-03
-1.242816685059811e-02 4.321151535970724e-02 -8.739461279462901e-03
-1.384462497661021e-02 3.836636376801439e-02 -8.831903588284007e-03
-1.507091972330010e-02 3.291609709585419e-02 -8.777537426533755e-03
-1.584240511058710e-02 2.816132103882174e-02 -8.602818106849597e-03
-1.618911052822403e-02 2.516753484054834e-02 -8.434152767765823e-03
-1.634694582375967e-02 2.335223352710658e-02 -8.309989477833568e-03
-1.655813579310594e-02 1.911719266807388e-02 -7.955364890463557e-03
-1.644322610700355e-02 1.290915348685595e-02 -7.262718477889507e-03
-1.571528369082920e-02 6.637081996097804e-03 -6.320127999099867e-03
-1.459299190473962e-02 1.905505331755375e-03 -5.388397164654890e-03
-1.365892788450210e-02 -6.510020413793560e-04 -4.761966687553354e-03
        </DataArray>
        <DataArray type="Float64" Name="projection_direction" NumberOfComponents="3" format="ascii">
-6.617839362315747e-03 -4.275701014645861e-03 -3.007172116220147e-03
-2.086126529032617e-03 -5.711967345398694e-04 -3.976721283169837e-04
3.126927221069886e-03 2.126727798054673e-03 1.414172820233262e-03
3.598979642910338e-03 2.390207701360225e-03 2.133058848558633e-03
-1.982993221354423e-04 8.021154043751366e-04 9.759021089301712e-04
-3.093194050429071e-03 -1.265641449142207e-03 -2.026801894126962e-03
-3.686147285889896e-03 -2.001168647928875e-03 -3.221100541439981e-03
-3.767632583068448e-03 -2.228281297956380e-03 -3.227300562583579e-03
-3.884909253789259e-03 -2.559061465486456e-03 -3.238433980673250e-03
-4.002045902589790e-03 -2.900291909743835e-03 -3.253740842694697e-03
-4.091168052227201e-03 -3.175189936405198e-03 -3.270213049779258e-03
-4.140732911897982e-03 -3.338733173586572e-03 -3.282414948616363e-03
-3.970418790402497e-03 -3.320594467278393e-03 -2.928300504168035e-03
-3.190044845750695e-03 -2.981300164734746e-03 -1.758985300725158e-03
-1.911915659421615e-03 -2.196274159168898e-03 -6.116334227908027e-04
-5.484643572493120e-04 -1.103179788497499e-03 4.663545644767453e-05
4.847961889726804e-04 -6.966010513165255e-05 3.555002802322349e-04
1.047082924683251e-03 5.992922123149169e-04 5.179967650921213e-04
1.319235079373815e-03 9.592484849200167e-04 6.101210843993954e-04
1.687585334169128e-03 1.530220816045147e-03 7.657320474105944e-04
1.629292757218348e-03 1.786475757523887e-03 9.033340780959520e-04
8.453585671430730e-04 1.298204299172045e-03 8.775583766365003e-04
-1.201739687495262e-04 4.543967099981394e-04 5.258611269258751e-04
-6.517700281403749e-04 -1.153979387165105e-04 4.885612463922939e-06
-7.500315984768635e-04 -2.564670126090629e-04 -1.834289632896002e-04
-7.416948183944228e-04 -3.069429336622909e-04 -2.188299052434672e-04
-7.315866012266858e-04 -3.824863188887084e-04 -2.730803497925649e-04
-7.242872852854521e-04 -4.633404633520577e-04 -3.329900620059334e-04
-7.213663392451330e-04 -5.310592616843968e-04 -3.848017690675221e-04
-7.211995351653622e-04 -5.726404959764952e-04 -4.174314510869692e-04
-5.780455175821708e-04 -7.559204616763848e-04 -4.770310760449092e-04
-2.045736433525791e-04 -8.519898917087598e-04 -4.916037647113569e-04
-5.310882434372832e-05 -1.809023465714210e-04 -2.091632818572720e-04
-7.346322736315192e-05 1.965508848723596e-04 5.690008804570823e-05
-1.738775374443557e-05 -8.119662809036310e-05 5.495812071920625e-05
1.016510241965210e-05 -8.967840319062947e-05 4.004210936159325e-06
5.925057697722669e-05 -3.118853884697848e-03 -8.790362469763835e-04
9.495904592182747e-05 -1.579010554674243e-03 -4.103480762243095e-04
-3.420034709883391e-05 5.653648573030745e-04 6.507006802536353e-05
-1.905975753741518e-04 1.863864614616351e-03 3.202183864203789e-04
-1.336044844078565e-04 1.640735176606789e-03 3.996869578788420e-04
6.528284417145480e-05 8.151578561123585e-04 4.284879421891929e-04
1.479395727682631e-04 -9.349037219038570e-04 3.438379811520065e-04
2.330832607742028e-04 -8.085250066890426e-04 3.940182422912386e-04
3.711155930223864e-04 -6.069366202181570e-04 4.770128274032004e-04
5.335917681833502e-04 -3.713904759919950e-04 5.776108559487625e-04
6.819539390987561e-04 -1.548707591549903e-04 6.725415132748935e-04
7.787978470387147e-04 -1.154937718328419e-05 7.362530047938520e-04
7.584445969370801e-04 3.521311147558492e-05 7.186084120949232e-04
5.892334270676258e-04 8.098549840562796e-05 5.889650994319595e-04
3.553940354732443e-04 1.682354405972974e-04 4.069149727499166e-04
1.302886074940890e-04 3.008839452577350e-04 2.305607138382015e-04
-3.915333917769992e-05 4.593147857544500e-04 1.005642544882335e-04
-1.351499375239484e-04 5.860068041790845e-04 3.028048051056942e-05
1.722544352050215e-04 7.501163628461649e-04 5.429648633086259e-04
2.524623674400317e-04 9.965724748378091e-04 6.367079973692569e-04
9.440814724792634e-05 5.892646746841201e-05 3.956496610513227e-05
-3.922263695572692e-04 -1.533812815390556e-03 -8.866836694352287e-04
-5.552075167463144e-04 -2.037884616080787e-03 -9.231372983204977e-04
-9.974259675282759e-05 -1.318339528394330e-03 -4.268894386427746e-05
9.314429356461762e-04 -3.996358826784396e-04 4.223750167984264e-04
-4.956724412650271e-04 2.379202201520103e-04 -3.002101115487932e-04
-1.220819852770116e-03 -3.521279722296100e-05 -5.104494058656428e-04
-3.274460362705511e-04 -1.085556460110437e-03 5.379209161660015e-05
6.332818249361605e-04 -5.818414645260006e-04 2.983292518177194e-04
3.646537177930398e-04 1.796260629451929e-03 -2.806204679632884e-04
-2.327074693369013e-04 7.422750778706133e-04 -3.839465627031302e-05
-4.101012740123089e-04 1.051769692869464e-03 -1.733629928200031e-04
-3.409366475004560e-04 1.057040397425935e-03 -1.857240037335117e-04
1.303673523700422e-04 5.678248695070165e-04 1.080012598286828e-05
7.837770464838023e-04 -1.012516280347597e-04 3.293185966253276e-04
1.271238192476210e-03 -5.589740912008700e-04 6.033617839591443e-04
5.678293332602613e-03 5.717605967208494e-03 -2.322241199426145e-04
2.708717470796373e-03 3.556697222707905e-03 -2.475985987722140e-04
-1.198781306803953e-03 6.076614013980075e-04 -3.924358371829584e-04
-4.519349871487166e-03 -1.929563521727351e-03 -6.589923387121388e-04
-6.451625100813541e-03 -3.293429880864673e-03 -9.120353256086844e-04
-7.175199997652371e-03 -3.652697448196851e-03 -1.050304325223905e-03
4.712991950746259e-03 7.225941312006379e-03 -7.718414818924657e-04
4.322245419101534e-03 6.593037356257936e-03 -6.913848996070726e-04
3.751742966092264e-03 5.623698764299911e-03 -5.610450656430288e-04
3.163287379529089e-03 4.553942541981271e-03 -4.063216155003602e-04
2.691476677045945e-03 3.629312359756720e-03 -2.624408996414473e-04
2.412931622976622e-03 3.047234355150530e-03 -1.665901393899105e-04
-7.002806331216527e-03 -3.496601337236727e-03 -1.090446355293651e-03
-5.761912370076061e-03 -2.662515758435124e-03 -1.125019734386612e-03
-3.561678311549743e-03 -9.443748452422351e-04 -1.139054669554440e-03
-6.786838465551170e-04 1.653501847281857e-03 -1.082747259772532e-03
2.232825588554643e-03 4.581636273964129e-03 -9.551944655541433e-04
4.281323471441500e-03 6.792461867452304e-03 -8.288304190493534e-04
-6.653188762229201e-03 1.644150523522514e-03 -3.000431378614721e-03
-3.512856387109853e-03 -1.910444352534735e-04 -7.992016450053541e-04
7.708601314604380e-05 -1.838243724383792e-03 1.196140874119678e-03
2.861845795351758e-03 -1.367610288085630e-03 1.701139315780864e-03
4.833952990672463e-03 1.680445614890835e-03 9.510037785194214e-04
6.126405198749185e-03 5.196064874057771e-03 3.017557606810328e-05
-1.819128022283678e-03 -2.916548117695594e-03 -3.080287860868225e-04
-1.987551525582471e-03 -3.715476346492275e-03 -3.765602128673606e-04
-1.904240880556796e-03 -4.026137430874654e-03 -4.431511966416224e-04
-1.401522822113824e-03 -3.213540429933381e-03 -4.145145318759091e-04
-6.904663881124665e-04 -1.668470677542944e-03 -2.520499779485874e-04
-1.438197943633736e-04 -3.579109979113815e-04 -6.003886988636964e-05
2.005746696336463e-03 2.156120413596807e-03 -1.604865732929284e-05
8.120523836043780e-04 -5.698698420520953e-04 4.243932954519636e-04
-5.396964123731696e-04 -3.934188706386399e-03 9.061548350803861e-04
-1.434008912633677e-03 -6.446524862534719e-03 1.169686822217741e-03
-1.773929892268988e-03 -7.538732118370528e-03 1.173483193811720e-03
-1.814481970681125e-03 -7.683075392762806e-03 1.070566568957432e-03
-1.582486968029428e-03 -7.276910295400341e-03 1.028449095404227e-03
-6.480489026104985e-04 -5.538709778893924e-03 9.733320950804369e-04
8.796376613916523e-04 -2.088289879579652e-03 7.750237376296099e-04
2.625134642314841e-03 2.894863443970164e-03 4.038170001567920e-04
4.102340832270568e-03 8.269265034202555e-03 -3.786961416274437e-05
4.978021581957981e-03 1.219551437015853e-02 -3.696898138478844e-04
4.702941633050406e-03 1.223338994858181e-02 -3.957842318129678e-04
2.970462319479561e-03 8.588094777164157e-03 -2.040310137871870e-04
8.710098438881597e-04 4.009913028188761e-03 -6.055396812598701e-05
-7.079686820347653e-04 3.314389096623627e-04 -7.020881209385266e-05
-1.488437314413782e-03 -1.725667705745337e-03 -1.751615076841517e-04
-1.719360972210315e-03 -2.505191552513941e-03 -2.658866806193316e-04
        </DataArray>
        <DataArray type="Int32" Name="uid_0_pair_beam_id" format="ascii">
275
275
275
275
275
275
275
275
275
275
275
275
275
275
275
275
275
275
276
276
276
276
276
276
276
276
276
276
276
276
276
276
276
276
276
276
277
277
277
277
277
277
277
277
277
277
277
277
277
277
277
277
277
277
277
277
277
277
277
277
278
278
278
278
278
278
278
278
278
278
278
278
279
279
279
279
279
279
279
279
279
279
279
279
279
279
279
279
279
279
279
279
279
279
279
279
280
280
280
280
280
280
280
280
280
280
280
280
280
280
280
280
280
280
280
280
280
280
280
280
        </DataArray>
        <DataArray type="Int32" Name="uid_1_pair_solid_id" format="ascii">
34
34
34
34
34
34
35
35
35
35
35
35
38
38
38
38
38
38
38
38
38
38
38
38
39
39
39
39
39
39
42
42
42
42
42
42
44
44
44
44
44
44
48
48
48
48
48
48
47
47
47
47
47
47
46
46
46
46
46
46
49
49
49
49
49
49
47
47
47
47
47
47
58
58
58
58
58
58
65
65
65
65
65
65
83
83
83
83
83
83
98
98
98
98
98
98
51
51
51
51
51
51
65
65
65
65
65
65
69
69
69
69
69
69
93
93
93
93
93
93
        </DataArray>
      </PointData>

    </Piece>
  </UnstructuredGrid>
</VTKFile>
