<?xml version="1.0" ?> 
<!-- 
# vtk DataFile Version 3.0
-->
<VTKFile type="UnstructuredGrid" version="0.1" compressor="vtkZLibDataCompressor" byte_order="LittleEndian">
  <UnstructuredGrid>
    <FieldData>
      <DataArray type="Float64" Name="TIME" NumberOfTuples="1" format="ascii">
1.000000000000000e+00 
      </DataArray>
      <DataArray type="Float64" Name="sum_coupling_force_beam" NumberOfTuples="1" NumberOfComponents="3" format="ascii">
2.731638092129919e-02 5.399855696697334e-02 5.249712416790061e-03 
      </DataArray>
      <DataArray type="Float64" Name="sum_coupling_force_solid" NumberOfTuples="1" NumberOfComponents="3" format="ascii">
-2.731638092129919e-02 -5.399855696697334e-02 -5.249712416790059e-03 
      </DataArray>
      <DataArray type="Float64" Name="sum_coupling_moment_beam" NumberOfTuples="1" NumberOfComponents="3" format="ascii">
-5.547313445857572e-14 -2.820621797333150e-13 4.947204660612337e-15 
      </DataArray>
      <DataArray type="Float64" Name="sum_coupling_moment_solid" NumberOfTuples="1" NumberOfComponents="3" format="ascii">
5.089915001042677e-01 -2.361539475638118e-01 2.418973706122939e-02 
      </DataArray>
    </FieldData>

    <Piece NumberOfPoints="326" NumberOfCells="0" >
      <Points>
        <DataArray type="Float64" NumberOfComponents="3" format="ascii">
7.000000000000000e-01 0.000000000000000e+00 1.000000000000000e+01
6.062177826489999e-01 3.500000000000000e-01 1.000000000000000e+01
6.062177826489999e-01 3.500000000000000e-01 1.050000000000000e+01
7.000000000000000e-01 0.000000000000000e+00 1.050000000000000e+01
1.000000000000000e+00 0.000000000000000e+00 1.000000000000000e+01
8.660254037839999e-01 5.000000000000000e-01 1.000000000000000e+01
8.660254037839999e-01 5.000000000000000e-01 1.050000000000000e+01
1.000000000000000e+00 0.000000000000000e+00 1.050000000000000e+01
6.761480784020000e-01 1.811733315720000e-01 1.000000000000000e+01
6.062177826489999e-01 3.500000000000000e-01 1.025000000000000e+01
6.761480784020000e-01 1.811733315720000e-01 1.050000000000000e+01
7.000000000000000e-01 0.000000000000000e+00 1.025000000000000e+01
8.500000000000000e-01 0.000000000000000e+00 1.000000000000000e+01
7.361215932170000e-01 4.250000000000000e-01 1.000000000000000e+01
7.361215932170000e-01 4.250000000000000e-01 1.050000000000000e+01
8.500000000000000e-01 0.000000000000000e+00 1.050000000000000e+01
9.659258262890000e-01 2.588190451030000e-01 1.000000000000000e+01
8.660254037839999e-01 5.000000000000000e-01 1.025000000000000e+01
9.659258262890000e-01 2.588190451030000e-01 1.050000000000000e+01
1.000000000000000e+00 0.000000000000000e+00 1.025000000000000e+01
8.210369523460000e-01 2.199961883370000e-01 1.025000000000000e+01
6.761480784020000e-01 1.811733315720000e-01 1.025000000000000e+01
9.659258262890000e-01 2.588190451030000e-01 1.025000000000000e+01
8.500000000000000e-01 0.000000000000000e+00 1.025000000000000e+01
7.361215932170000e-01 4.250000000000000e-01 1.025000000000000e+01
8.210369523460000e-01 2.199961883370000e-01 1.000000000000000e+01
8.210369523460000e-01 2.199961883370000e-01 1.050000000000000e+01
3.500000000000000e-01 6.062177826489999e-01 1.000000000000000e+01
3.500000000000000e-01 6.062177826489999e-01 1.050000000000000e+01
5.000000000000000e-01 8.660254037839999e-01 1.000000000000000e+01
5.000000000000000e-01 8.660254037839999e-01 1.050000000000000e+01
4.949747468310000e-01 4.949747468310000e-01 1.000000000000000e+01
3.500000000000000e-01 6.062177826489999e-01 1.025000000000000e+01
4.949747468310000e-01 4.949747468310000e-01 1.050000000000000e+01
4.250000000000000e-01 7.361215932170000e-01 1.000000000000000e+01
4.250000000000000e-01 7.361215932170000e-01 1.050000000000000e+01
7.071067811870000e-01 7.071067811870000e-01 1.000000000000000e+01
5.000000000000000e-01 8.660254037839999e-01 1.025000000000000e+01
7.071067811870000e-01 7.071067811870000e-01 1.050000000000000e+01
6.010407640090000e-01 6.010407640090000e-01 1.025000000000000e+01
4.949747468310000e-01 4.949747468310000e-01 1.025000000000000e+01
7.071067811870000e-01 7.071067811870000e-01 1.025000000000000e+01
4.250000000000000e-01 7.361215932170000e-01 1.025000000000000e+01
6.010407640090000e-01 6.010407640090000e-01 1.000000000000000e+01
6.010407640090000e-01 6.010407640090000e-01 1.050000000000000e+01
0.000000000000000e+00 7.000000000000000e-01 1.000000000000000e+01
0.000000000000000e+00 7.000000000000000e-01 1.050000000000000e+01
0.000000000000000e+00 1.000000000000000e+00 1.000000000000000e+01
0.000000000000000e+00 1.000000000000000e+00 1.050000000000000e+01
1.811733315720000e-01 6.761480784020000e-01 1.000000000000000e+01
0.000000000000000e+00 7.000000000000000e-01 1.025000000000000e+01
1.811733315720000e-01 6.761480784020000e-01 1.050000000000000e+01
0.000000000000000e+00 8.500000000000000e-01 1.000000000000000e+01
0.000000000000000e+00 8.500000000000000e-01 1.050000000000000e+01
2.588190451030000e-01 9.659258262890000e-01 1.000000000000000e+01
0.000000000000000e+00 1.000000000000000e+00 1.025000000000000e+01
2.588190451030000e-01 9.659258262890000e-01 1.050000000000000e+01
2.199961883370000e-01 8.210369523460000e-01 1.025000000000000e+01
1.811733315720000e-01 6.761480784020000e-01 1.025000000000000e+01
2.588190451030000e-01 9.659258262890000e-01 1.025000000000000e+01
0.000000000000000e+00 8.500000000000000e-01 1.025000000000000e+01
2.199961883370000e-01 8.210369523460000e-01 1.000000000000000e+01
2.199961883370000e-01 8.210369523460000e-01 1.050000000000000e+01
6.062177826489999e-01 3.500000000000000e-01 1.100000000000000e+01
7.000000000000000e-01 0.000000000000000e+00 1.100000000000000e+01
8.660254037839999e-01 5.000000000000000e-01 1.100000000000000e+01
1.000000000000000e+00 0.000000000000000e+00 1.100000000000000e+01
6.062177826489999e-01 3.500000000000000e-01 1.075000000000000e+01
6.761480784020000e-01 1.811733315720000e-01 1.100000000000000e+01
7.000000000000000e-01 0.000000000000000e+00 1.075000000000000e+01
7.361215932170000e-01 4.250000000000000e-01 1.100000000000000e+01
8.500000000000000e-01 0.000000000000000e+00 1.100000000000000e+01
8.660254037839999e-01 5.000000000000000e-01 1.075000000000000e+01
9.659258262890000e-01 2.588190451030000e-01 1.100000000000000e+01
1.000000000000000e+00 0.000000000000000e+00 1.075000000000000e+01
8.210369523460000e-01 2.199961883370000e-01 1.075000000000000e+01
6.761480784020000e-01 1.811733315720000e-01 1.075000000000000e+01
9.659258262890000e-01 2.588190451030000e-01 1.075000000000000e+01
8.500000000000000e-01 0.000000000000000e+00 1.075000000000000e+01
7.361215932170000e-01 4.250000000000000e-01 1.075000000000000e+01
8.210369523460000e-01 2.199961883370000e-01 1.100000000000000e+01
3.500000000000000e-01 6.062177826489999e-01 1.100000000000000e+01
5.000000000000000e-01 8.660254037839999e-01 1.100000000000000e+01
3.500000000000000e-01 6.062177826489999e-01 1.075000000000000e+01
4.949747468310000e-01 4.949747468310000e-01 1.100000000000000e+01
4.250000000000000e-01 7.361215932170000e-01 1.100000000000000e+01
5.000000000000000e-01 8.660254037839999e-01 1.075000000000000e+01
7.071067811870000e-01 7.071067811870000e-01 1.100000000000000e+01
6.010407640090000e-01 6.010407640090000e-01 1.075000000000000e+01
4.949747468310000e-01 4.949747468310000e-01 1.075000000000000e+01
7.071067811870000e-01 7.071067811870000e-01 1.075000000000000e+01
4.250000000000000e-01 7.361215932170000e-01 1.075000000000000e+01
6.010407640090000e-01 6.010407640090000e-01 1.100000000000000e+01
0.000000000000000e+00 7.000000000000000e-01 1.100000000000000e+01
0.000000000000000e+00 1.000000000000000e+00 1.100000000000000e+01
0.000000000000000e+00 7.000000000000000e-01 1.075000000000000e+01
1.811733315720000e-01 6.761480784020000e-01 1.100000000000000e+01
0.000000000000000e+00 8.500000000000000e-01 1.100000000000000e+01
0.000000000000000e+00 1.000000000000000e+00 1.075000000000000e+01
2.588190451030000e-01 9.659258262890000e-01 1.100000000000000e+01
2.199961883370000e-01 8.210369523460000e-01 1.075000000000000e+01
1.811733315720000e-01 6.761480784020000e-01 1.075000000000000e+01
2.588190451030000e-01 9.659258262890000e-01 1.075000000000000e+01
0.000000000000000e+00 8.500000000000000e-01 1.075000000000000e+01
2.199961883370000e-01 8.210369523460000e-01 1.100000000000000e+01
6.062177826489999e-01 3.500000000000000e-01 1.150000000000000e+01
7.000000000000000e-01 0.000000000000000e+00 1.150000000000000e+01
8.660254037839999e-01 5.000000000000000e-01 1.150000000000000e+01
1.000000000000000e+00 0.000000000000000e+00 1.150000000000000e+01
6.062177826489999e-01 3.500000000000000e-01 1.125000000000000e+01
6.761480784020000e-01 1.811733315720000e-01 1.150000000000000e+01
7.000000000000000e-01 0.000000000000000e+00 1.125000000000000e+01
7.361215932170000e-01 4.250000000000000e-01 1.150000000000000e+01
8.500000000000000e-01 0.000000000000000e+00 1.150000000000000e+01
8.660254037839999e-01 5.000000000000000e-01 1.125000000000000e+01
9.659258262890000e-01 2.588190451030000e-01 1.150000000000000e+01
1.000000000000000e+00 0.000000000000000e+00 1.125000000000000e+01
8.210369523460000e-01 2.199961883370000e-01 1.125000000000000e+01
6.761480784020000e-01 1.811733315720000e-01 1.125000000000000e+01
9.659258262890000e-01 2.588190451030000e-01 1.125000000000000e+01
8.500000000000000e-01 0.000000000000000e+00 1.125000000000000e+01
7.361215932170000e-01 4.250000000000000e-01 1.125000000000000e+01
8.210369523460000e-01 2.199961883370000e-01 1.150000000000000e+01
3.500000000000000e-01 6.062177826489999e-01 1.150000000000000e+01
5.000000000000000e-01 8.660254037839999e-01 1.150000000000000e+01
3.500000000000000e-01 6.062177826489999e-01 1.125000000000000e+01
4.949747468310000e-01 4.949747468310000e-01 1.150000000000000e+01
4.250000000000000e-01 7.361215932170000e-01 1.150000000000000e+01
5.000000000000000e-01 8.660254037839999e-01 1.125000000000000e+01
7.071067811870000e-01 7.071067811870000e-01 1.150000000000000e+01
6.010407640090000e-01 6.010407640090000e-01 1.125000000000000e+01
[...]
  <PointData>
        <DataArray type="Float64" Name="displacement" NumberOfComponents="3" format="ascii">
8.953302617698797e-04 3.689637676721796e-04 -5.144534278590108e-04
2.474482479023557e-04 2.851053069123728e-04 -1.364044396378888e-04
1.079920802526507e-04 2.618343789710372e-04 -4.059426483928930e-05
1.714416396052597e-04 1.935749804804280e-04 -2.687993015161138e-04
1.224417681179913e-03 1.175728527637979e-03 -1.820924279303131e-04
1.771566926285492e-04 4.963946932535452e-04 6.205349859615095e-05
-1.950181804534261e-05 2.535113478114905e-04 2.289311201454934e-05
1.720816570743598e-04 2.651572663896860e-04 -1.468051670570787e-04
5.437300709074669e-04 3.345994872476493e-04 -3.115709393397137e-04
1.275447141808738e-04 2.129773375968263e-04 -9.749412177583360e-05
1.188202577379870e-04 2.094151998841098e-04 -1.789474399100307e-04
4.746662642825875e-04 2.017038644423756e-04 -4.175021567498780e-04
9.896074571913965e-04 6.449946308066108e-04 -3.537354298002980e-04
1.998831896921081e-04 3.720700028701917e-04 -6.249993757041906e-05
7.780760022097280e-05 2.532359769220220e-04 -2.911581199355659e-05
1.602908366283172e-04 2.253162614572752e-04 -2.156102340138241e-04
5.469573938065856e-04 8.190903317347345e-04 7.974480464500018e-05
1.174705536513332e-05 2.838419495426511e-04 3.801999569553614e-05
1.022793425121486e-04 2.573231933678731e-04 -9.539415293076751e-05
5.323042241286843e-04 5.459329136053413e-04 -1.473999792489817e-04
1.908922049534085e-04 2.922798344196784e-04 -1.378205620988357e-04
2.639250277259589e-04 1.882106196332618e-04 -2.648582231815751e-04
1.244413554386692e-04 3.648045052842236e-04 1.555272081747330e-05
4.774381965920467e-04 3.354925644709199e-04 -3.068194743929835e-04
6.067854785206804e-05 2.645304999512590e-04 -4.779645412567712e-05
5.079815324005755e-04 5.181947003873461e-04 -1.501411725621403e-04
9.505932690576804e-05 2.134154169765406e-04 -1.204940281459182e-04
7.422681517542207e-05 1.333734697752807e-04 -4.201226145672871e-06
1.587366067891117e-04 1.526170455644287e-04 -1.319425370129435e-05
-2.942553854237672e-05 2.089015579384025e-04 -1.080659338968393e-05
-4.877690793407314e-06 2.154936269172073e-04 5.602377483113328e-06
1.226322669263215e-04 2.229790414381127e-04 -4.517175470866215e-05
1.018841128567335e-04 1.503582877294928e-04 1.439677702822068e-05
1.750902798667308e-04 2.635712525252954e-04 -3.552972716394840e-06
2.270016158769909e-05 1.750756300103528e-04 -5.435006038990673e-06
1.027098841163277e-04 2.000027257338749e-04 8.217438853023030e-06
3.248766593010332e-05 3.281615976808599e-04 6.684872555658221e-06
-1.377023129499193e-05 2.209514145394942e-04 -6.880334197815150e-06
1.205745652397702e-04 3.672754634200019e-04 -1.607441525163917e-06
7.486559961844089e-05 2.554793746911588e-04 -1.216302099372991e-05
1.148239336285653e-04 2.172846561941925e-04 -1.358720488842317e-05
5.141412091093933e-05 2.859254713134497e-04 -1.857630958384937e-05
4.958702050783820e-05 1.874809961594818e-04 6.100052307484825e-07
7.870817609388949e-05 2.679918041278517e-04 -2.314378352387552e-05
1.618325095985195e-04 3.163986397870998e-04 1.523498148798691e-05
0.000000000000000e+00 0.000000000000000e+00 0.000000000000000e+00
0.000000000000000e+00 0.000000000000000e+00 0.000000000000000e+00
0.000000000000000e+00 0.000000000000000e+00 0.000000000000000e+00
0.000000000000000e+00 0.000000000000000e+00 0.000000000000000e+00
4.258683820350106e-05 5.351953146613789e-05 1.599069293837864e-05
0.000000000000000e+00 0.000000000000000e+00 0.000000000000000e+00
7.838884511238129e-05 5.482340117254752e-05 -1.654380606656294e-05
0.000000000000000e+00 0.000000000000000e+00 0.000000000000000e+00
0.000000000000000e+00 0.000000000000000e+00 0.000000000000000e+00
-4.884524746952058e-05 8.428898259509545e-05 -8.432102958493539e-06
0.000000000000000e+00 0.000000000000000e+00 0.000000000000000e+00
-3.265848924696773e-05 7.593249357235537e-05 2.621346415302942e-05
8.318927145512495e-06 7.531842953399571e-05 7.133741889922277e-06
5.827346911447048e-05 6.608641256628228e-05 1.022050294300289e-05
-4.112245407384977e-05 9.428194230825219e-05 5.777423193696445e-06
0.000000000000000e+00 0.000000000000000e+00 0.000000000000000e+00
-2.626822670532757e-06 6.511606227210321e-05 3.307996207295572e-06
2.084159926559329e-05 6.403557754668603e-05 5.889926487388513e-06
1.477448578706090e-04 1.330338504670562e-05 -1.781854160808713e-04
1.355964496528385e-04 3.368184227927569e-05 -2.864711798476628e-04
1.125540887955495e-04 3.862954982662643e-05 1.752730015434431e-05
1.413157301831628e-04 5.076352152792753e-05 -2.562662264539462e-04
1.914500680235791e-04 2.262389321039559e-04 -1.095834146654854e-04
1.378226855650004e-04 4.588735443147992e-05 -2.083183956274204e-04
1.138253279832813e-04 1.662399146069713e-04 -2.389545516746765e-04
1.429731713506511e-04 5.039042991976930e-05 -8.059475526450904e-05
1.412201755942608e-04 4.606195398210842e-05 -2.695036947861578e-04
1.769825115747146e-04 2.160326293258245e-04 -1.667729511858653e-05
1.371380544602642e-04 5.561432253738619e-05 -1.165247335022550e-04
1.309435634447587e-04 1.592799210085903e-04 -2.201754941535324e-04
1.361416113325755e-04 1.770159461022692e-04 -1.461503947622157e-04
1.352886399811898e-04 1.943972374053875e-04 -1.665421306467455e-04
1.370154444947529e-04 1.666083864024322e-04 -1.309203797218381e-04
1.201282354315721e-04 1.632636481834867e-04 -2.299539649140409e-04
1.907526509518497e-04 2.518811831075448e-04 -5.700947859048534e-05
1.404976737182320e-04 4.812305486903466e-05 -1.618214469768989e-04
9.238884968432579e-06 -2.306290418863091e-04 -1.428940874425774e-04
-2.046509842717935e-04 -3.992475385058773e-04 -1.417314794363089e-05
1.589692499614581e-04 3.359789498986312e-05 -1.050638067179898e-04
1.171681046171308e-04 -9.046476647538149e-05 -1.577812098537875e-04
-7.936551806921849e-05 -2.741059415543408e-04 -3.370095046354509e-05
-5.607379453215205e-06 8.878214753569496e-05 5.126403557960288e-05
1.245559958256401e-05 -4.876422637451308e-06 1.200091982333936e-04
2.503658085939768e-04 2.794153005200477e-04 -1.987125045670369e-05
2.413523620398298e-04 1.897135933985663e-04 -9.637835321018369e-05
2.797276303384667e-04 4.283969167220009e-04 9.702811252534227e-05
9.730254095156909e-05 5.746967276582646e-05 -3.269219158810742e-05
7.809002397034721e-05 -5.027841127002942e-05 -4.332003701576427e-05
0.000000000000000e+00 0.000000000000000e+00 0.000000000000000e+00
0.000000000000000e+00 0.000000000000000e+00 0.000000000000000e+00
0.000000000000000e+00 0.000000000000000e+00 0.000000000000000e+00
-5.454161581507569e-05 -1.823427088365233e-04 -8.066164454827263e-05
0.000000000000000e+00 0.000000000000000e+00 0.000000000000000e+00
0.000000000000000e+00 0.000000000000000e+00 0.000000000000000e+00
-4.108212704504550e-05 -2.296264453882397e-04 2.652038788346011e-05
8.538946579887134e-06 -2.948924456299848e-05 -1.985190702381473e-05
4.605490205024176e-05 -3.108346549275180e-05 -7.922258078911876e-05
-1.520284669675884e-05 -1.523813673721934e-05 5.261498147319770e-05
0.000000000000000e+00 0.000000000000000e+00 0.000000000000000e+00
-6.458721595764606e-05 -2.092410060041896e-04 -3.510599367405409e-05
-3.496900502475325e-05 -3.395038724895969e-04 -1.425960152285988e-04
7.064460725053162e-05 -3.030815679685654e-04 -3.262866813899616e-04
-8.212074402118720e-05 -2.587725209189482e-04 1.302864456751594e-05
6.879457710248476e-05 -2.271269554032442e-04 -2.534050883732348e-04
4.926240160608287e-05 -1.906512648722258e-04 -1.629917554357230e-04
2.181837471803274e-05 -3.115130506197546e-04 -2.224038147500563e-04
1.223248432191368e-04 -1.394640355144509e-04 -3.183107198853805e-04
-5.776398596201281e-05 -2.961142097993951e-04 -6.489294673495516e-05
7.056486813744683e-05 -2.640934300011885e-04 -2.898634237936905e-04
7.051782722111227e-06 -1.065797467046569e-04 2.250224842055944e-05
-2.001460234960132e-06 -2.308799601022731e-04 -9.771948133595479e-05
1.224542919376218e-04 -7.836695283134394e-05 -2.574129187046054e-04
8.179086959894159e-05 -1.146976352522534e-04 -1.628679360797242e-04
8.725666809377736e-05 -1.485392129125147e-04 -2.227162357146719e-04
7.251606461204240e-05 -8.336474835759681e-05 -1.014838614453592e-04
1.235982847629932e-04 -1.080655916422906e-04 -2.866264477541845e-04
2.886906150847767e-05 -1.467404633651596e-04 -6.814674292119980e-05
9.951114620510091e-06 -2.714866206095286e-04 -1.614514948017055e-04
-1.081535718021151e-04 -2.935495168574551e-04 -6.956916688691401e-06
-7.316118257072278e-05 -3.604930983138805e-04 -2.141592943474245e-05
-9.521581877069960e-05 -3.033939121363904e-04 -4.498816977774569e-05
-8.441076266939301e-05 -3.495899478536965e-04 -7.387827669528595e-05
-1.047556327533327e-04 -3.132460773800267e-04 1.017780748379390e-06
-1.307162292856447e-04 -3.181177540877129e-04 -1.553973305670520e-05
-1.294469729252929e-04 -3.083053654249736e-04 5.489704324943793e-05
-5.219934449519293e-05 -2.316713032697654e-04 -1.665602990597884e-05
-1.474181548901466e-05 -2.617387749588200e-04 -1.059971488752684e-04
-8.394185944505660e-05 -1.797023861795953e-04 7.308269984861221e-05
-1.075736843434495e-04 -3.337960178659162e-04 3.465305184931287e-07
-1.071312843029437e-04 -3.326216432043977e-04 -1.790733259542821e-05
0.000000000000000e+00 0.000000000000000e+00 0.000000000000000e+00
0.000000000000000e+00 0.000000000000000e+00 0.000000000000000e+00
0.000000000000000e+00 0.000000000000000e+00 0.000000000000000e+00
-8.423401439066411e-05 -1.400810191881359e-04 5.850626160151677e-05
0.000000000000000e+00 0.000000000000000e+00 0.000000000000000e+00
0.000000000000000e+00 0.000000000000000e+00 0.000000000000000e+00
1.166861010962882e-04 -5.671326264895294e-05 7.543984420993432e-06
-6.713240084754928e-05 -2.590300594983894e-04 1.844879299804111e-05
-1.088405433183496e-04 -2.167839612563254e-04 8.529845584834081e-07
-8.471138971074082e-05 -3.316352511900606e-04 1.345447915212173e-05
0.000000000000000e+00 0.000000000000000e+00 0.000000000000000e+00
-2.465629125594624e-05 -1.272598928998159e-04 4.178721122962469e-05
0.000000000000000e+00 0.000000000000000e+00 0.000000000000000e+00
0.000000000000000e+00 0.000000000000000e+00 0.000000000000000e+00
0.000000000000000e+00 0.000000000000000e+00 0.000000000000000e+00
0.000000000000000e+00 0.000000000000000e+00 0.000000000000000e+00
-4.551922398147851e-16 -5.518407166849116e-16 -5.530504664212528e-16
-1.757204850975487e-16 2.322435340980346e-16 -6.712883453144081e-16
3.461007779090799e-16 1.085893496858089e-16 -4.853919211774348e-16
2.129242548632177e-16 -4.069410798931283e-16 -3.132022652996152e-16
0.000000000000000e+00 0.000000000000000e+00 0.000000000000000e+00
0.000000000000000e+00 0.000000000000000e+00 0.000000000000000e+00
0.000000000000000e+00 0.000000000000000e+00 0.000000000000000e+00
0.000000000000000e+00 0.000000000000000e+00 0.000000000000000e+00
-6.527818769073000e-17 -9.884321459098328e-17 -3.990047982815908e-16
3.835397589054659e-17 3.567993724538574e-16 -5.827477914294923e-16
8.823175296726235e-17 1.708190971605996e-16 -4.727691584806435e-16
1.645880482991331e-16 -7.914630947791934e-17 -2.787050176225449e-16
-3.366161734026791e-16 -1.385978505538499e-16 -6.883945120372767e-16
3.835644027072291e-17 2.743827240741730e-16 -6.636854004416304e-16
2.767120517092860e-16 -1.841771303924543e-16 -3.256219110655594e-16
-1.247302347105224e-16 -4.469058577495226e-16 -4.089361297170710e-16
5.457646971847004e-18 8.899921949566834e-17 -3.836183054554477e-16
0.000000000000000e+00 0.000000000000000e+00 0.000000000000000e+00
-2.145024363271164e-17 -1.283596684260393e-16 -4.868189908664745e-16
4.933336296840530e-17 -6.936906941689724e-17 -3.389009326257768e-16
3.376680900075863e-17 3.085868679050242e-16 -5.473056420301614e-16
-7.342331370689850e-17 8.754675929264364e-17 -5.020937252095226e-16
8.358160438410865e-17 4.984221607501471e-17 -3.002992410019025e-16
0.000000000000000e+00 0.000000000000000e+00 0.000000000000000e+00
0.000000000000000e+00 0.000000000000000e+00 0.000000000000000e+00
2.594185264626581e-16 -3.818995223011680e-16 -3.674675729292367e-16
4.796847756042380e-16 -8.827163164517955e-16 -1.453591381414731e-15
0.000000000000000e+00 0.000000000000000e+00 0.000000000000000e+00
0.000000000000000e+00 0.000000000000000e+00 0.000000000000000e+00
0.000000000000000e+00 0.000000000000000e+00 0.000000000000000e+00
-1.084177944598864e-16 -2.934523983992663e-16 -4.193010529104791e-16
-6.482439201698161e-17 -3.973148988248556e-16 -2.662638585587759e-15
-5.167616198288028e-17 1.792725723758596e-16 -6.226162869766346e-16
3.684179621726808e-16 -6.204482197537717e-16 -9.214645121245605e-16
-9.015535979776791e-17 8.994443518424061e-17 -1.663407067251192e-15
3.144809467219174e-17 3.663198119796905e-16 -7.896577216638005e-16
0.000000000000000e+00 0.000000000000000e+00 0.000000000000000e+00
4.665044032973279e-17 1.860934802500177e-16 -8.615521830473395e-16
-1.188217819891652e-16 -3.808197010114547e-16 -8.729262725111775e-16
3.637702509631688e-17 2.978893053758882e-16 -4.540661671571555e-16
5.218303927319487e-18 2.877937551214370e-16 -1.372100890686808e-15
-1.190234837391537e-15 -2.821856579779765e-15 2.443380433965992e-17
-3.701811019782862e-16 -1.418169957904384e-15 1.351799576294358e-16
1.547673469682661e-15 -1.616650329886558e-15 1.426201001996784e-15
5.292200491588730e-16 -2.849367134398458e-15 8.274533375199881e-16
-9.451338648187948e-16 -1.440107634247261e-15 -4.209097034123123e-16
-3.569613241079484e-16 -3.970851601475165e-16 -3.942703720581417e-16
6.035969103969046e-16 -5.049030835596114e-16 -1.203755553398680e-16
3.104730628489391e-16 -1.373864933305613e-15 9.186679965973460e-17
-7.602708079428340e-16 -2.125261524097673e-15 -7.458081491543172e-18
3.569150554650317e-16 -1.423793861114987e-15 5.153371554081737e-16
8.414464350172900e-16 -2.164735005175762e-15 8.252541737444004e-16
-4.000692480986507e-16 -2.814654449050673e-15 3.614420065821082e-16
-2.942098096409248e-17 -8.794715750420733e-16 -1.725957300065481e-16
7.495698271561008e-17 -2.130837525154099e-15 4.520754242877481e-16
-3.299803341226184e-16 -1.388394271804290e-15 -1.372376816211054e-16
1.264668771206937e-16 -3.750225246536851e-16 -2.023582931452215e-16
-6.105479351532673e-16 -8.889357500903289e-16 -4.519897445877430e-16
5.555465677169798e-16 -9.329332019351026e-16 8.632626497662082e-17
3.847260620557709e-16 -5.112159207391742e-16 2.499798294176039e-16
1.208501713780999e-15 -5.334305812149829e-16 7.693898994640136e-16
5.172497656305080e-16 -3.520278212514280e-16 -1.210710462215743e-16
9.754840262141564e-16 -3.535092464218441e-16 -2.011651986214211e-16
-5.993950785848042e-17 -9.012676621591008e-16 2.061564093175410e-16
7.704710023146519e-16 -5.037245626706841e-16 4.900894430487523e-16
9.500525914465728e-16 -9.575182986830081e-16 9.335084562909209e-16
2.581610805802689e-16 -2.571263206486866e-16 -2.272375713184143e-16
4.589622334892890e-16 -8.680767741633021e-16 5.298047104137180e-16
7.359066121997398e-16 -3.624866892840161e-16 -2.023090916879296e-16
-2.306363380352199e-17 -2.394595849344268e-16 -2.328591344120910e-16
4.463799637249689e-16 -4.028867112112876e-16 -3.261747993671808e-16
-7.768268167037546e-16 -5.747860029723109e-15 5.396957882873308e-16
-4.645810508831480e-16 -4.111546794499791e-15 4.568451258957370e-16
1.100785248382608e-15 -4.110752811381177e-15 1.337673790559642e-15
5.235966720153214e-16 -5.772428365310242e-15 1.721973681329149e-15
-1.059967337991734e-15 -4.417606826495159e-15 3.628873789954458e-16
-4.023599931094705e-16 -2.722201473684660e-15 4.077218982054042e-16
1.701916360753141e-15 -2.727335142146337e-15 1.866889911241797e-15
4.211721641796161e-16 -4.453625009249762e-15 1.321160881827484e-15
-6.194145416850786e-16 -4.947678039107378e-15 5.300603276600561e-16
3.669064470088332e-16 -4.133653059638164e-15 9.735985287604555e-16
1.039160176070283e-15 -4.790792811984910e-15 1.590734269845374e-15
-9.261334790314138e-17 -5.761874745212914e-15 1.056195269042846e-15
1.907265344298420e-16 -3.590934525349824e-15 9.590062744170589e-16
1.142275993987743e-16 -4.940371256339441e-15 1.025281863253660e-15
-2.235679541866938e-16 -4.462583514492387e-15 9.069855917545805e-16
4.551728467101739e-16 -2.714506786896347e-15 9.382700407064131e-16
-7.007745645910408e-16 -3.579421198009005e-15 4.038326477262484e-16
1.287088622245912e-15 -3.569701475252593e-15 1.751229774603142e-15
-2.035493407883209e-16 -2.448944840873834e-15 4.569211944175770e-16
1.349793709814564e-15 -2.435796366257116e-15 1.438247624846623e-15
5.897596188812157e-17 -1.287566838811035e-15 4.433309826918395e-16
1.394125558949381e-15 -1.220791725437045e-15 1.337579915062849e-15
-3.058817831806430e-16 -3.264757913027592e-15 4.782909657614754e-16
5.831479387184068e-16 -2.433811407599648e-15 9.609967278083330e-16
1.255057108542981e-15 -3.253103866396069e-15 1.433083902902501e-15
4.960737193314839e-16 -1.911947078134363e-15 8.893963199150352e-16
4.689734701895507e-16 -3.253398841541904e-15 9.472708886709685e-16
6.700934415231497e-16 -1.248178409192085e-15 8.346562461207063e-16
-2.047841011061146e-16 -1.937703060816866e-15 4.250461358122728e-16
1.127339385692717e-15 -1.960012145050432e-15 1.334681938593383e-15
-7.521832246610942e-16 -6.851248382003763e-15 9.368939782456808e-16
-4.224428626091536e-16 -6.496457148118587e-15 8.332562901880085e-16
9.511015445171313e-16 -6.518484817731467e-15 1.504614646103541e-15
-1.701760054229645e-15 -6.410288534328697e-15 7.709830707168150e-16
-6.394770726643298e-16 -6.454607845496717e-15 7.130643176423150e-16
-4.089976432495345e-16 -5.368207274816382e-15 6.074552822396460e-16
1.045200707534441e-15 -5.318948880926234e-15 1.396732675381241e-15
-2.895076143016984e-16 -6.357504060107664e-15 9.911253013563959e-16
-4.383579548662412e-16 -6.701707304168491e-15 9.907221596740995e-16
3.054118699706888e-16 -6.514757689777501e-15 1.186197193176269e-15
3.946778020389564e-16 -6.705200665221632e-15 1.344366264366731e-15
-5.156423190072061e-16 -6.657399201254644e-15 1.218036440442688e-15
-1.797851196915821e-17 -6.009673585207742e-15 9.397028682290697e-16
-6.382580652573086e-17 -6.728583891668734e-15 1.186199188002880e-15
-2.917952011899455e-16 -6.481791327682488e-15 9.504040940598536e-16
3.042836848912231e-16 -5.374262444402948e-15 9.859332568853289e-16
-5.164041476517082e-16 -5.991423074306174e-15 6.696771816991799e-16
4.178265658683712e-16 -5.929204799668968e-15 1.060802971239699e-15
-2.143448605121689e-16 -5.125330588247397e-15 6.675348487344592e-16
1.367708945112856e-15 -5.161622731020827e-15 1.559178734288828e-15
-2.210896306034496e-16 -3.814281933430138e-15 5.645445255289191e-16
1.377211686230173e-15 -3.790426681001546e-15 1.511562249132398e-15
-3.036246413897800e-16 -5.895767678856267e-15 7.239591595121477e-16
5.768087252817439e-16 -5.151729417444870e-15 1.139872438370954e-15
1.247655308832711e-15 -5.878323424809535e-15 1.581708246337601e-15
4.662977539544466e-16 -4.598830943534291e-15 1.021927967594955e-15
4.691008239179526e-16 -5.893747772504869e-15 1.147825979759093e-15
5.728306765801726e-16 -3.799300326244464e-15 1.022773043665838e-15
-3.155876718239327e-16 -4.597319190592320e-15 5.682171341904689e-16
1.246767733785650e-15 -4.583830081043921e-15 1.469045876656337e-15
0.000000000000000e+00 0.000000000000000e+00 0.000000000000000e+00
0.000000000000000e+00 0.000000000000000e+00 0.000000000000000e+00
4.180199175273243e-03 3.832301964364961e-02 -9.085580354353555e-03
0.000000000000000e+00 0.000000000000000e+00 0.000000000000000e+00
1.173456160405810e-02 1.953412235062704e-02 3.078338707841513e-03
1.241557489408838e-02 1.434277367348678e-02 6.666956238163148e-03
1.915881151435458e-02 2.328232574844446e-02 1.426019827159757e-02
2.305204826602770e-02 3.900011866155419e-02 1.472746993812002e-02
1.016873472125353e-03 1.542276253335028e-02 -5.545466918919915e-04
2.062935464497235e-03 1.177985197923439e-03 9.672572612743058e-04
-2.976130930243819e-03 1.051919550809713e-03 -4.494973819536805e-03
3.739252880922357e-03 2.297065405641327e-02 -3.839142933289645e-03
1.491114628549495e-02 3.566240876447642e-02 4.194205408743401e-03