<?xml version="1.0" ?> 
<!-- 
# vtk DataFile Version 3.0
-->
<VTKFile type="UnstructuredGrid" version="0.1" compressor="vtkZLibDataCompressor" byte_order="LittleEndian">
  <UnstructuredGrid>
    <FieldData>
      <DataArray type="Float64" Name="TIME" NumberOfTuples="1" format="ascii">
3.000000000000000e+00 
      </DataArray>
    </FieldData>

    <Piece NumberOfPoints="24" NumberOfCells="0" >
      <Points>
        <DataArray type="Float64" NumberOfComponents="3" format="ascii">
1.000000000000000e+00 0.000000000000000e+00 -7.079632679490000e-02
7.071067811870000e-01 7.071067811870000e-01 7.146018366030000e-01
9.229551825145283e-01 3.823005540599319e-01 3.219027549043411e-01
7.071067811870000e-01 7.071067811870000e-01 7.146018366030000e-01
0.000000000000000e+00 1.000000000000000e+00 1.500000000000000e+00
3.823005540591954e-01 9.229551825132056e-01 1.107300918301373e+00
1.000000000000000e-01 3.000000000000000e-01 2.500000000000000e+00
1.150000000000000e+00 3.000000000000000e-01 3.050000000000000e+00
6.250000000000000e-01 3.000000000000000e-01 2.775000000000000e+00
1.150000000000000e+00 3.000000000000000e-01 3.050000000000000e+00
2.200000000000000e+00 3.000000000000000e-01 3.600000000000000e+00
1.675000000000000e+00 3.000000000000000e-01 3.325000000000000e+00
1.000000000000000e+00 0.000000000000000e+00 4.929203673210000e+00
7.071067811870000e-01 7.071067811870000e-01 5.714601836600000e+00
9.229551825141720e-01 3.823005540597842e-01 5.321902754905291e+00
7.071067811870000e-01 7.071067811870000e-01 5.714601836600000e+00
0.000000000000000e+00 1.000000000000000e+00 6.500000000000000e+00
3.823005540592515e-01 9.229551825133410e-01 6.107300918299872e+00
1.000000000000000e-01 3.000000000000000e-01 7.500000000000000e+00
1.150000000000000e+00 3.000000000000000e-01 8.050000000000001e+00
6.250000000000000e-01 3.000000000000000e-01 7.775000000000000e+00
1.150000000000000e+00 3.000000000000000e-01 8.050000000000001e+00
2.200000000000000e+00 3.000000000000000e-01 8.600000000000000e+00
1.675000000000000e+00 3.000000000000000e-01 8.324999999999999e+00
        </DataArray>
      </Points>

      <Cells>
        <DataArray type="Int32" Name="connectivity" format="ascii">

        </DataArray>
        <DataArray type="Int32" Name="offsets" format="ascii">

        </DataArray>
        <DataArray type="UInt8" Name="types" format="ascii">

        </DataArray>
      </Cells>

  <PointData>
        <DataArray type="Float64" Name="displacement" NumberOfComponents="3" format="ascii">
3.282806679948138e-01 2.706090852537366e-01 4.074909348015365e-02
-1.531404282810289e-03 7.756542485352680e-02 -6.744620974829862e-03
9.219610956755431e-02 1.760987502427896e-01 4.548172538419437e-04
-1.531404282810289e-03 7.756542485352680e-02 -6.744620974829862e-03
0.000000000000000e+00 0.000000000000000e+00 0.000000000000000e+00
-2.088341110260838e-02 9.565873928112145e-03 -7.360320801049980e-03
0.000000000000000e+00 0.000000000000000e+00 0.000000000000000e+00
-7.790880589206783e-02 2.594081436903522e-01 1.850868867794908e-02
-2.312135486096079e-02 7.062940911449694e-02 7.057749296627946e-03
-7.790880589206783e-02 2.594081436903522e-01 1.850868867794908e-02
-2.658373876623334e-01 8.787509977899584e-01 -3.008255209387434e-02
-1.544628363651062e-01 5.281576515464141e-01 9.088703244739982e-03
4.119715746087942e-01 3.753854152970670e-01 5.038128555517396e-02
1.572029743769221e-02 1.181854818329201e-01 -5.838122888502717e-03
1.329215196519684e-01 2.411022044453314e-01 3.655058748468498e-03
1.572029743769221e-02 1.181854818329201e-01 -5.838122888502717e-03
0.000000000000000e+00 0.000000000000000e+00 0.000000000000000e+00
-1.065413466322895e-02 3.012795075131591e-02 -1.984828369009151e-03
0.000000000000000e+00 0.000000000000000e+00 0.000000000000000e+00
-1.503076804456983e-01 3.793980746713430e-01 4.730083356017900e-02
-4.813552512951924e-02 1.144916879583185e-01 1.803003025049765e-02
-1.503076804456983e-01 3.793980746713430e-01 4.730083356017900e-02
-4.680679182381784e-01 1.151102978634267e+00 -4.753651707899209e-03
-2.883966857028100e-01 7.257363932614913e-01 4.245919317945912e-02
        </DataArray>
        <DataArray type="Float64" Name="lambda" NumberOfComponents="3" format="ascii">
7.669251562852727e-02 2.857237790498970e-02 -2.978555234930214e-03
1.352668187402511e-02 3.288235909175460e-02 2.524784720033486e-03
2.081553219589532e-04 -1.438651804350748e-02 -6.832674227070155e-03
1.352668187402511e-02 3.288235909175460e-02 2.524784720033486e-03
6.449717881136063e-02 1.380926451902829e-01 2.637526570093976e-02
-3.692530833241482e-03 -1.071246273048387e-02 3.489355090169111e-04
-1.247561232405062e-02 -2.406226382388733e-02 -5.771527098544978e-03
-1.196435495239163e-03 -7.659608708972272e-03 -5.272739314850400e-04
2.205291832583121e-03 2.545910341745060e-03 1.142576727510514e-03
-1.196435495239163e-03 -7.659608708972272e-03 -5.272739314850400e-04
-1.728956843460057e-02 1.721838630179194e-02 -8.531868750895419e-03
6.705427027229204e-03 6.310624289669503e-03 3.788238119792064e-03
6.105450351087120e-02 7.255600982419700e-03 4.130085483111131e-03
6.776231151741315e-03 6.700502374139597e-03 -1.280897682401558e-04
2.759246681933748e-03 -5.155123712946066e-03 -6.034639243175337e-03
6.776231151741315e-03 6.700502374139597e-03 -1.280897682401558e-04
7.958740391635154e-03 1.024270106586747e-02 4.164400696027992e-03
-1.361639642435592e-03 -8.907652767014473e-04 2.213620617193220e-05
-2.048209592190341e-03 7.809032898400265e-04 1.033821076792638e-03
1.948218079914063e-03 4.952579091697497e-03 5.021983258417677e-03
2.556868677933507e-03 -3.825748147895363e-03 -6.643630884781417e-04
1.948218079914063e-03 4.952579091697497e-03 5.021983258417677e-03
-1.680015047373614e-02 3.168854341826741e-02 -1.357749884239946e-03
5.412476575282016e-03 3.294253289366833e-03 2.086318214352103e-03
        </DataArray>
        <DataArray type="Int32" Name="uid_0_pair_beam_id" format="ascii">
267
267
267
268
268
268
269
269
269
270
270
270
271
271
271
272
272
272
273
273
273
274
274
274
        </DataArray>
        <DataArray type="Int32" Name="uid_1_pair_solid_id" format="ascii">
8
8
8
8
8
8
16
16
16
16
16
16
18
18
18
18
18
18
26
26
26
26
26
26
        </DataArray>
      </PointData>

    </Piece>
  </UnstructuredGrid>
</VTKFile>
