<?xml version="1.0" ?> 
<!-- 
# vtk DataFile Version 3.0
-->
<VTKFile type="UnstructuredGrid" version="0.1" compressor="vtkZLibDataCompressor" byte_order="LittleEndian">
  <UnstructuredGrid>
    <FieldData>
      <DataArray type="Float64" Name="TIME" NumberOfTuples="1" format="ascii">
3.000000000000000e+00 
      </DataArray>
    </FieldData>

    <Piece NumberOfPoints="40" NumberOfCells="0" >
      <Points>
        <DataArray type="Float64" NumberOfComponents="3" format="ascii">
9.973931072026406e-01 7.070273512785413e-02 1.000000000000000e+01
8.653443956095521e-01 4.996068197471639e-01 1.045272047163852e+01
8.653443956095521e-01 4.996068197471640e-01 1.045272047163852e+01
8.408972616904897e-01 5.400395384261464e-01 1.050000000000000e+01
8.408972616904891e-01 5.400395384261474e-01 1.050000000000000e+01
7.071067811870000e-01 7.071067811870000e-01 1.071460183660000e+01
7.071067811870000e-01 7.071067811870000e-01 1.071460183660000e+01
4.996068197465660e-01 8.653443956085162e-01 1.097648320156397e+01
4.996068197465658e-01 8.653443956085163e-01 1.097648320156397e+01
4.790802794564825e-01 8.767986476944808e-01 1.100000000000000e+01
4.790802794564811e-01 8.767986476944815e-01 1.100000000000000e+01
0.000000000000000e+00 1.000000000000000e+00 1.150000000000000e+01
1.000000000000000e-01 3.000000000000000e-01 1.250000000000000e+01
5.000000000000000e-01 3.000000000000000e-01 1.270952380952378e+01
1.000000000000000e+00 3.000000000000000e-01 1.297142857142863e+01
1.054545454545364e+00 3.000000000000000e-01 1.300000000000000e+01
1.054545454545370e+00 3.000000000000000e-01 1.300000000000000e+01
1.150000000000000e+00 3.000000000000000e-01 1.305000000000000e+01
5.000000000000000e-01 3.000000000000000e-01 1.270952380952378e+01
1.000000000000000e+00 3.000000000000000e-01 1.297142857142863e+01
1.500000000000000e+00 3.000000000000000e-01 1.323333333333329e+01
2.000000000000000e+00 3.000000000000000e-01 1.349523809523816e+01
1.150000000000000e+00 3.000000000000000e-01 1.305000000000000e+01
1.500000000000000e+00 2.999999999999999e-01 1.323333333333329e+01
9.099418396092163e-01 4.123520859599071e-01 1.535465927548244e+01
8.072131304353310e-01 5.895942770789949e-01 1.555997188189463e+01
7.282911557660177e-01 6.852367478256445e-01 1.568414612346445e+01
7.071067811870000e-01 7.071067811870000e-01 1.571460183660000e+01
8.072131304353318e-01 5.895942770789941e-01 1.555997188189463e+01
7.282911557660177e-01 6.852367478256445e-01 1.568414612346445e+01
9.974188365449632e-01 7.035216465623575e-02 1.499964823725036e+01
9.099418396092159e-01 4.123520859599079e-01 1.535465927548244e+01
2.540680715836868e-01 9.663884211005245e-01 1.624282971409468e+01
0.000000000000000e+00 1.000000000000000e+00 1.650000000000000e+01
7.071067811870000e-01 7.071067811870000e-01 1.571460183660000e+01
5.836739772285680e-01 8.114691146331118e-01 1.587652897058727e+01
5.836739772285678e-01 8.114691146331119e-01 1.587652897058727e+01
4.573928745921857e-01 8.882395524102780e-01 1.602452946266590e+01
4.573928745921856e-01 8.882395524102780e-01 1.602452946266590e+01
2.540680715836858e-01 9.663884211005248e-01 1.624282971409468e+01
        </DataArray>
      </Points>

      <Cells>
        <DataArray type="Int32" Name="connectivity" format="ascii">

        </DataArray>
        <DataArray type="Int32" Name="offsets" format="ascii">

        </DataArray>
        <DataArray type="UInt8" Name="types" format="ascii">

        </DataArray>
      </Cells>

  <PointData>
        <DataArray type="Float64" Name="displacement" NumberOfComponents="3" format="ascii">
3.486805433187189e-01 3.559236958972066e-01 3.732706488572646e-02
8.186580416381484e-02 2.024190037132992e-01 -2.357057563170173e-03
8.186580416381462e-02 2.024190037132991e-01 -2.357057563168397e-03
6.650948559407099e-02 1.872861877457282e-01 -3.591385328677532e-03
6.650948559407066e-02 1.872861877457280e-01 -3.591385328679308e-03
1.658544639857107e-02 1.209435819151021e-01 -6.110604602449499e-03
1.658544639857107e-02 1.209435819151021e-01 -6.110604602449499e-03
-8.829759437027240e-03 5.484687934186283e-02 -4.273860798720719e-03
-8.829759437027185e-03 5.484687934186283e-02 -4.273860798718943e-03
-9.551690789660672e-03 5.014453719558265e-02 -3.904024915934556e-03
-9.551690789660672e-03 5.014453719558243e-02 -3.904024915934556e-03
0.000000000000000e+00 0.000000000000000e+00 0.000000000000000e+00
0.000000000000000e+00 0.000000000000000e+00 0.000000000000000e+00
-3.157379762254720e-02 7.091559699689143e-02 1.072740646236880e-02
-1.200669669457255e-01 3.017170859198583e-01 4.094536844827346e-02
-1.320067150978889e-01 3.322315015128272e-01 4.353467399660182e-02
-1.320067150978901e-01 3.322315015128305e-01 4.353467399660538e-02
-1.536579672670246e-01 3.867975551013925e-01 4.713905388113915e-02
-3.157379762254720e-02 7.091559699689143e-02 1.072740646236880e-02
-1.200669669457252e-01 3.017170859198584e-01 4.094536844827523e-02
-2.430617022767569e-01 6.102442515426234e-01 4.816309144390729e-02
-4.025924627667423e-01 9.945298790946833e-01 1.641845204186509e-02
-1.536579672670246e-01 3.867975551013925e-01 4.713905388113915e-02
-2.430617022767572e-01 6.102442515426235e-01 4.816309144390729e-02
5.752649727852643e-02 1.159627171160635e-01 4.474766611833658e-03
2.235300071640178e-02 8.929061719685205e-02 -4.470495625952253e-05
7.007915404581677e-03 7.363233139290093e-02 -3.567280723093091e-03
3.348207863743236e-03 6.989898106718151e-02 -4.718528312483983e-03
2.235300071640167e-02 8.929061719685216e-02 -4.470495626307525e-05
7.007915404581677e-03 7.363233139290093e-02 -3.567280723093091e-03
1.936306982105691e-01 1.601589222699939e-01 2.422070340514892e-02
5.752649727852632e-02 1.159627171160635e-01 4.474766611833658e-03
-1.340221939805053e-02 -1.223193154062052e-03 -4.604126116610985e-03
0.000000000000000e+00 0.000000000000000e+00 0.000000000000000e+00
3.348207863743236e-03 6.989898106718151e-02 -4.718528312483983e-03
-1.105804783082820e-02 4.707546646347427e-02 -8.561087763055752e-03
-1.105804783082809e-02 4.707546646347427e-02 -8.561087763055752e-03
-1.625793188261193e-02 2.443113029358279e-02 -8.385778911744524e-03
-1.625793188261188e-02 2.443113029358301e-02 -8.385778911744524e-03
-1.340221939805050e-02 -1.223193154062163e-03 -4.604126116607432e-03
        </DataArray>
        <DataArray type="Float64" Name="projection_direction" NumberOfComponents="3" format="ascii">
-7.709714310571103e-03 -5.527482047438692e-03 -3.968789856443777e-03
-3.665149486693164e-03 -1.942781538062710e-03 -3.219650167247678e-03
-3.665149486692942e-03 -1.942781538062821e-03 -3.219650167244126e-03
-4.152113023185522e-03 -3.377922142270728e-03 -3.285663003632422e-03
-4.152113023185300e-03 -3.377922142270839e-03 -3.285663003630646e-03
1.175500779826533e-03 7.659558741666128e-04 5.602572739107359e-04
1.175500779826533e-03 7.659558741666128e-04 5.602572739107359e-04
-7.523351975607939e-04 -2.436573232199590e-04 -1.745470091840673e-04
-7.523351975607384e-04 -2.436573232201811e-04 -1.745470091858436e-04
-7.213620396820386e-04 -5.827652746848155e-04 -4.254770945308906e-04
-7.213620396819276e-04 -5.827652746847045e-04 -4.254770945291142e-04
0.000000000000000e+00 0.000000000000000e+00 0.000000000000000e+00
2.544510041850578e-05 -3.486050186062961e-03 -1.018442156107469e-03
1.382173849739377e-04 5.364791706981009e-04 4.372470304687681e-04
1.272070846392026e-04 -9.660341773830572e-04 3.317269723090988e-04
8.030532581517758e-04 2.468889899842619e-05 7.524407051011650e-04
8.030532581522198e-04 2.468889899809312e-05 7.524407050958359e-04
-1.576562706415707e-04 6.209578830297380e-04 1.440528640372918e-05
1.382173849739377e-04 5.364791706980454e-04 4.372470304669918e-04
1.272070846390916e-04 -9.660341773829462e-04 3.317269723126515e-04
1.397025168244692e-03 -6.693805827873156e-04 6.808997327176769e-04
9.027617206802674e-05 2.770696936538863e-03 -5.738546006455181e-04
-1.576562706415707e-04 6.209578830297380e-04 1.440528640372918e-05
1.397025168244914e-03 -6.693805827872046e-04 6.808997327194533e-04
6.472355321277545e-03 6.281758127070991e-03 -2.403904796945966e-04
-7.291159554245974e-03 -3.673080683768704e-03 -1.079211431793681e-03
4.813257967785090e-03 7.384783293759467e-03 -7.914884333022343e-04
2.346536865020843e-03 2.903735131337126e-03 -1.422960709724919e-04
-7.291159554245752e-03 -3.673080683768815e-03 -1.079211431788352e-03
4.813257967785090e-03 7.384783293759467e-03 -7.914884333004579e-04
-7.558792096730160e-03 2.176472749535613e-03 -3.672508480130787e-03
6.472355321277767e-03 6.281758127070880e-03 -2.403904796963729e-04
-1.746790974761381e-03 -2.637705904029009e-03 -2.893876856049360e-04
6.607345871076734e-18 0.000000000000000e+00 0.000000000000000e+00
2.346536865020843e-03 2.903735131337126e-03 -1.422960709724919e-04
-1.806572894767156e-03 -7.651658326451982e-03 1.032792707491126e-03
-1.806572894767156e-03 -7.651658326451982e-03 1.032792707491126e-03
5.184083142035500e-03 1.323093444131718e-02 -4.575662354149301e-04
5.184083142035500e-03 1.323093444131695e-02 -4.575662354184828e-04
-1.746790974761464e-03 -2.637705904029009e-03 -2.893876856120414e-04
        </DataArray>
        <DataArray type="Int32" Name="uid_0_pair_beam_id" format="ascii">
275
275
275
275
275
275
276
276
276
276
276
276
277
277
277
277
277
277
277
277
278
278
278
278
279
279
279
279
279
279
279
279
280
280
280
280
280
280
280
280
        </DataArray>
        <DataArray type="Int32" Name="uid_1_pair_solid_id" format="ascii">
34
34
35
35
38
38
38
38
39
39
42
42
44
44
48
48
47
47
46
46
49
49
47
47
58
58
65
65
83
83
98
98
51
51
65
65
69
69
93
93
        </DataArray>
      </PointData>

    </Piece>
  </UnstructuredGrid>
</VTKFile>
