<?xml version="1.0" ?> 
<!-- 
# vtk DataFile Version 3.0
-->
<VTKFile type="UnstructuredGrid" version="0.1" compressor="vtkZLibDataCompressor" byte_order="LittleEndian">
  <UnstructuredGrid>
    <FieldData>
      <DataArray type="Float64" Name="TIME" NumberOfTuples="1" format="ascii">
3.000000000000000e+00 
      </DataArray>
    </FieldData>

    <Piece NumberOfPoints="18" NumberOfCells="0" >
      <Points>
        <DataArray type="Float64" NumberOfComponents="3" format="ascii">
1.000000000000000e-01 3.000000000000000e-01 1.750000000000000e+01
1.150000000000000e+00 3.000000000000000e-01 1.805000000000000e+01
6.250000000000000e-01 3.000000000000000e-01 1.777500000000000e+01
1.150000000000000e+00 3.000000000000000e-01 1.805000000000000e+01
2.200000000000000e+00 3.000000000000000e-01 1.860000000000000e+01
1.675000000000000e+00 3.000000000000000e-01 1.832500000000000e+01
1.000000000000000e+00 0.000000000000000e+00 1.992920367320000e+01
7.071067811870000e-01 7.071067811870000e-01 2.071460183660000e+01
9.229551825146229e-01 3.823005540599710e-01 2.032190275490029e+01
7.071067811870000e-01 7.071067811870000e-01 2.071460183660000e+01
0.000000000000000e+00 1.000000000000000e+00 2.150000000000000e+01
3.823005540592515e-01 9.229551825133410e-01 2.110730091829987e+01
1.000000000000000e-01 3.000000000000000e-01 2.250000000000000e+01
1.150000000000000e+00 3.000000000000000e-01 2.305000000000000e+01
6.250000000000000e-01 3.000000000000000e-01 2.277500000000000e+01
1.150000000000000e+00 3.000000000000000e-01 2.305000000000000e+01
2.200000000000000e+00 3.000000000000000e-01 2.360000000000000e+01
1.675000000000000e+00 3.000000000000000e-01 2.332500000000000e+01
        </DataArray>
      </Points>

      <Cells>
        <DataArray type="Int32" Name="connectivity" format="ascii">

        </DataArray>
        <DataArray type="Int32" Name="offsets" format="ascii">

        </DataArray>
        <DataArray type="UInt8" Name="types" format="ascii">

        </DataArray>
      </Cells>

  <PointData>
        <DataArray type="Float64" Name="displacement" NumberOfComponents="3" format="ascii">
0.000000000000000e+00 0.000000000000000e+00 0.000000000000000e+00
-3.722034723882750e-02 1.609867689574131e-01 1.396343284000423e-02
-1.271564295899985e-02 4.467240552457402e-02 5.338768720356768e-03
-3.722034723882750e-02 1.609867689574131e-01 1.396343284000423e-02
-1.204773426034733e-01 5.746960596276216e-01 -7.713575744254797e-03
-6.667695230939730e-02 3.266878033748453e-01 1.231593071048209e-02
4.091240090892279e-01 3.748749118879631e-01 4.918643492160157e-02
1.680703679435369e-02 1.208543314139009e-01 -5.684291251082385e-03
1.331566762159377e-01 2.433454717844153e-01 3.293221581433414e-03
1.680703679435369e-02 1.208543314139009e-01 -5.684291251082385e-03
0.000000000000000e+00 0.000000000000000e+00 0.000000000000000e+00
-1.087746159282199e-02 3.102258520691403e-02 -2.173439290217516e-03
0.000000000000000e+00 0.000000000000000e+00 0.000000000000000e+00
-1.528385714824123e-01 3.847467021992717e-01 4.714136226444410e-02
-4.936366330465369e-02 1.168551584340023e-01 1.805242921542316e-02
-1.528385714824123e-01 3.847467021992717e-01 4.714136226444410e-02
-4.746837806572750e-01 1.159835191194670e+00 -4.079611721049758e-03
-2.925305083438789e-01 7.328400277961076e-01 4.242103292198962e-02
        </DataArray>
        <DataArray type="Float64" Name="lambda" NumberOfComponents="3" format="ascii">
1.161072375481106e-02 -1.342469859858587e-02 -4.523296085705042e-03
1.037036680746500e-03 -9.874831128401642e-04 -1.929579192175441e-03
-4.543658722309260e-04 2.723383272670292e-04 7.697006288286828e-04
1.037036680746500e-03 -9.874831128401642e-04 -1.929579192175441e-03
-1.010752208483633e-02 3.616136730799677e-02 -9.270621125155663e-03
4.022147517995328e-03 1.807850973993211e-03 2.968059186071182e-03
6.233355323371174e-02 6.168622612590207e-03 1.959186190743264e-03
6.540167865694459e-03 6.238728836917309e-03 -8.510515415735809e-04
2.423550038394590e-03 -4.833364058573602e-03 -5.376140162377432e-03
6.540167865694459e-03 6.238728836917309e-03 -8.510515415735809e-04
6.906123901942143e-03 8.879123167599562e-03 3.606423044939964e-03
-8.239668248374503e-04 -7.781030912996809e-04 6.998695317003376e-05
-2.343462903905153e-03 4.881184415929473e-05 -1.809414648255769e-04
1.577689934605788e-03 5.064221653577639e-03 4.587207046927465e-03
2.977232446139501e-03 -3.784765225590181e-03 -3.435625973772033e-04
1.577689934605788e-03 5.064221653577639e-03 4.587207046927465e-03
-1.652228551412876e-02 3.245906627494068e-02 -1.767332469909129e-03
5.377923230162960e-03 3.179502007696400e-03 2.157350530856601e-03
        </DataArray>
        <DataArray type="Int32" Name="uid_0_pair_beam_id" format="ascii">
281
281
281
282
282
282
283
283
283
284
284
284
285
285
285
286
286
286
        </DataArray>
        <DataArray type="Int32" Name="uid_1_pair_solid_id" format="ascii">
141
141
141
141
141
141
169
169
169
169
169
169
207
207
207
207
207
207
        </DataArray>
      </PointData>

    </Piece>
  </UnstructuredGrid>
</VTKFile>
