<?xml version="1.0" ?> 
<!-- 
# vtk DataFile Version 3.0
-->
<VTKFile type="UnstructuredGrid" version="0.1" compressor="vtkZLibDataCompressor" byte_order="LittleEndian">
  <UnstructuredGrid>
    <FieldData>
      <DataArray type="Float64" Name="TIME" NumberOfTuples="1" format="ascii">
1.000000000000000e+00 
      </DataArray>
    </FieldData>

    <Piece NumberOfPoints="48" NumberOfCells="0" >
      <Points>
        <DataArray type="Float64" NumberOfComponents="3" format="ascii">
9.973931072023358e-01 7.070273513256649e-02 -6.938893903907228e-17
8.653443956098170e-01 4.996068197473149e-01 4.527204716394889e-01
8.653443956098172e-01 4.996068197473150e-01 4.527204716394889e-01
8.408972616915399e-01 5.400395384249512e-01 4.999999999999999e-01
8.408972616915398e-01 5.400395384249512e-01 5.000000000000000e-01
7.071067811870000e-01 7.071067811870000e-01 7.146018366030000e-01
4.790802794582723e-01 8.767986476933661e-01 1.000000000000000e+00
0.000000000000000e+00 1.000000000000000e+00 1.500000000000000e+00
7.071067811870000e-01 7.071067811870000e-01 7.146018366030000e-01
4.996068197465065e-01 8.653443956084170e-01 9.764832015661983e-01
4.996068197465066e-01 8.653443956084170e-01 9.764832015661981e-01
4.790802794582723e-01 8.767986476933661e-01 1.000000000000000e+00
4.999999999999999e-01 3.000000000000000e-01 2.709523809523774e+00
9.999999999999997e-01 3.000000000000000e-01 2.971428571428627e+00
1.054545454545373e+00 3.000000000000000e-01 3.000000000000000e+00
1.150000000000000e+00 3.000000000000000e-01 3.050000000000000e+00
9.999999999999997e-01 3.000000000000000e-01 2.971428571428627e+00
1.054545454545372e+00 3.000000000000000e-01 3.000000000000000e+00
1.000000000000000e-01 3.000000000000000e-01 2.500000000000000e+00
4.999999999999999e-01 3.000000000000000e-01 2.709523809523774e+00
1.500000000000000e+00 3.000000000000000e-01 3.233333333333286e+00
2.000000000000000e+00 2.999999999999999e-01 3.495238095238156e+00
1.150000000000000e+00 3.000000000000000e-01 3.050000000000000e+00
1.500000000000000e+00 3.000000000000000e-01 3.233333333333286e+00
8.653443956095521e-01 4.996068197471640e-01 5.452720471638520e+00
8.408972616904899e-01 5.400395384261462e-01 5.499999999999999e+00
9.973931072026408e-01 7.070273512785316e-02 4.999999999999999e+00
8.653443956095521e-01 4.996068197471640e-01 5.452720471638520e+00
8.408972616904897e-01 5.400395384261465e-01 5.500000000000000e+00
7.071067811870000e-01 7.071067811870000e-01 5.714601836600000e+00
7.071067811870000e-01 7.071067811870000e-01 5.714601836600000e+00
4.996068197465660e-01 8.653443956085165e-01 5.976483201563967e+00
4.996068197465658e-01 8.653443956085164e-01 5.976483201563967e+00
4.790802794564825e-01 8.767986476944808e-01 5.999999999999999e+00
4.790802794564826e-01 8.767986476944806e-01 6.000000000000000e+00
0.000000000000000e+00 1.000000000000000e+00 6.500000000000000e+00
1.000000000000000e-01 3.000000000000000e-01 7.500000000000000e+00
5.000000000000000e-01 3.000000000000000e-01 7.709523809523774e+00
5.000000000000000e-01 3.000000000000000e-01 7.709523809523774e+00
1.000000000000000e+00 3.000000000000000e-01 7.971428571428629e+00
1.054545454545368e+00 2.999999999999999e-01 7.999999999999998e+00
1.150000000000000e+00 3.000000000000000e-01 8.050000000000001e+00
1.000000000000000e+00 3.000000000000000e-01 7.971428571428629e+00
1.054545454545370e+00 3.000000000000000e-01 8.000000000000000e+00
1.150000000000000e+00 3.000000000000000e-01 8.050000000000001e+00
1.500000000000000e+00 3.000000000000000e-01 8.233333333333286e+00
1.500000000000000e+00 3.000000000000000e-01 8.233333333333286e+00
2.000000000000000e+00 3.000000000000000e-01 8.495238095238156e+00
        </DataArray>
      </Points>

      <Cells>
        <DataArray type="Int32" Name="connectivity" format="ascii">

        </DataArray>
        <DataArray type="Int32" Name="offsets" format="ascii">

        </DataArray>
        <DataArray type="UInt8" Name="types" format="ascii">

        </DataArray>
      </Cells>

  <PointData>
        <DataArray type="Float64" Name="displacement" NumberOfComponents="3" format="ascii">
-3.083781767433558e-02 -2.533352098980338e-02 1.575168914743926e-02
-1.448183323661367e-02 -8.306156819374577e-03 -2.366471679151938e-03
-1.448183323661389e-02 -8.306156819374577e-03 -2.366471679151938e-03
-1.436852487775941e-02 -7.882854969850306e-03 -2.813653379358294e-03
-1.436852487775930e-02 -7.882854969850195e-03 -2.813653379358294e-03
-1.516997567414691e-02 -5.083845144167709e-03 -6.317662401051249e-03
-1.477121202600162e-02 -7.385744348191836e-03 -9.519646067945420e-03
0.000000000000000e+00 0.000000000000000e+00 0.000000000000000e+00
-1.516997567414691e-02 -5.083845144167709e-03 -6.317662401051249e-03
-1.497387244708892e-02 -6.821557798837530e-03 -9.588180490152864e-03
-1.497387244708887e-02 -6.821557798837530e-03 -9.588180490152864e-03
-1.477121202600168e-02 -7.385744348191836e-03 -9.519646067945420e-03
-5.551115123125783e-17 -5.551115123125783e-17 -4.440892098500626e-16
-2.220446049250313e-16 5.551115123125783e-17 -8.881784197001252e-16
-2.220446049250313e-16 1.110223024625157e-16 -8.881784197001252e-16
-2.220446049250313e-16 2.220446049250313e-16 -8.881784197001252e-16
-2.220446049250313e-16 5.551115123125783e-17 -8.881784197001252e-16
-2.220446049250313e-16 1.110223024625157e-16 -8.881784197001252e-16
0.000000000000000e+00 0.000000000000000e+00 0.000000000000000e+00
-5.551115123125783e-17 -5.551115123125783e-17 -8.881784197001252e-16
0.000000000000000e+00 6.661338147750939e-16 -1.332267629550188e-15
4.440892098500626e-16 1.498801083243961e-15 -1.332267629550188e-15
-2.220446049250313e-16 2.220446049250313e-16 -8.881784197001252e-16
0.000000000000000e+00 6.661338147750939e-16 -8.881784197001252e-16
5.790155638744077e-04 5.216540911986978e-04 3.502189673643130e-05
4.964731480603390e-04 4.785880927339337e-04 5.245489855987273e-05
8.478442444804779e-04 8.046179341914678e-04 4.327280161131597e-05
5.790155638744077e-04 5.216540911986978e-04 3.502189673643130e-05
4.964731480603390e-04 4.785880927340447e-04 5.245489855987273e-05
2.718378198611759e-04 4.417570820365313e-04 7.037177424784602e-05
2.718378198611759e-04 4.417570820365313e-04 7.037177424784602e-05
2.154106213770324e-04 4.549594631160225e-04 2.672419672311577e-05
2.154106213770324e-04 4.549594631163556e-04 2.672419672222759e-05
2.075635261836184e-04 4.426714698733125e-04 2.528810739654830e-05
2.075635261837849e-04 4.426714698733125e-04 2.528810739477194e-05
0.000000000000000e+00 0.000000000000000e+00 0.000000000000000e+00
0.000000000000000e+00 0.000000000000000e+00 0.000000000000000e+00
-2.220446049250313e-16 3.330669073875470e-16 8.881784197001252e-16
-2.220446049250313e-16 3.330669073875470e-16 8.881784197001252e-16
-4.440892098500626e-16 7.216449660063518e-16 8.881784197001252e-16
-4.440892098500626e-16 7.216449660063518e-16 8.881784197001252e-16
-2.220446049250313e-16 6.661338147750939e-16 0.000000000000000e+00
-4.440892098500626e-16 7.216449660063518e-16 8.881784197001252e-16
-2.220446049250313e-16 7.216449660063518e-16 1.776356839400250e-15
-2.220446049250313e-16 6.661338147750939e-16 0.000000000000000e+00
6.661338147750939e-16 -5.551115123125783e-17 -1.776356839400250e-15
4.440892098500626e-16 0.000000000000000e+00 -1.776356839400250e-15
0.000000000000000e+00 -1.276756478318930e-15 0.000000000000000e+00
        </DataArray>
        <DataArray type="Float64" Name="projection_direction" NumberOfComponents="3" format="ascii">
1.845530109302562e-02 1.117307564220368e-02 -4.438418573314952e-03
1.867545038847906e-02 1.203909559250937e-02 -2.464558584029108e-03
1.867545038847895e-02 1.203909559250926e-02 -2.464558584028997e-03
1.000257580817776e-02 8.142575101377503e-03 -2.026454683405066e-03
1.000257580817776e-02 8.142575101377614e-03 -2.026454683405121e-03
-5.543026279650198e-03 -5.583089780993755e-03 4.337918468400037e-04
4.387123546506111e-03 7.495478994242299e-03 -3.373297225085503e-04
0.000000000000000e+00 0.000000000000000e+00 0.000000000000000e+00
-5.543026279650198e-03 -5.583089780993755e-03 4.337918468400037e-04
7.543130324960179e-03 1.229700119594168e-02 -4.925437662357535e-04
7.543130324960012e-03 1.229700119594179e-02 -4.925437662356424e-04
4.387123546506166e-03 7.495478994242299e-03 -3.373297225085503e-04
5.551115123125783e-17 0.000000000000000e+00 8.881784197001252e-16
1.110223024625157e-16 -1.110223024625157e-16 -4.440892098500626e-16
-4.440892098500626e-16 -1.110223024625157e-16 -8.881784197001252e-16
-2.220446049250313e-16 0.000000000000000e+00 0.000000000000000e+00
1.110223024625157e-16 -1.110223024625157e-16 -4.440892098500626e-16
-4.440892098500626e-16 -1.665334536937735e-16 -4.440892098500626e-16
-5.551115123125783e-17 0.000000000000000e+00 0.000000000000000e+00
0.000000000000000e+00 -5.551115123125783e-17 4.440892098500626e-16
2.220446049250313e-16 1.110223024625157e-16 8.881784197001252e-16
-4.440892098500626e-16 0.000000000000000e+00 -4.440892098500626e-16
-2.220446049250313e-16 0.000000000000000e+00 0.000000000000000e+00
0.000000000000000e+00 1.110223024625157e-16 4.440892098500626e-16
8.161228343139815e-05 1.142553293999038e-04 -3.358236567851947e-05
-2.697543273100234e-05 1.049079293203858e-04 -5.371423788691487e-05
1.642741723776320e-04 2.983130222839747e-04 -1.360617576864342e-04
8.161228343139815e-05 1.142553293997928e-04 -3.358236567851947e-05
-2.697543273100234e-05 1.049079293201638e-04 -5.371423788691487e-05
-9.598439131952574e-06 -1.365874766179331e-06 6.410881727703099e-06
-9.598439131952574e-06 -1.365874766179331e-06 6.410881727703099e-06
7.137813164304063e-06 -8.218922430447417e-05 -8.767057148695301e-06
7.137813164470597e-06 -8.218922430469622e-05 -8.767057148695301e-06
-3.039102209001499e-05 -1.440184656129606e-04 -1.554086871724536e-05
-3.039102209001499e-05 -1.440184656128496e-04 -1.554086871635718e-05
0.000000000000000e+00 0.000000000000000e+00 8.881784197001252e-16
8.326672684688674e-17 -2.220446049250313e-16 0.000000000000000e+00
-1.665334536937735e-16 3.330669073875470e-16 0.000000000000000e+00
-1.110223024625157e-16 3.330669073875470e-16 0.000000000000000e+00
-7.771561172376096e-16 -2.775557561562891e-16 -4.440892098500626e-15
-2.220446049250313e-16 -5.551115123125783e-17 -8.881784197001252e-16
2.220446049250313e-16 5.551115123125783e-17 0.000000000000000e+00
-6.661338147750939e-16 -2.775557561562891e-16 -3.552713678800501e-15
-6.661338147750939e-16 -2.220446049250313e-16 -3.552713678800501e-15
2.220446049250313e-16 5.551115123125783e-17 0.000000000000000e+00
4.440892098500626e-16 2.220446049250313e-16 7.105427357601002e-15
6.661338147750939e-16 2.220446049250313e-16 7.105427357601002e-15
-4.440892098500626e-16 1.165734175856414e-15 -3.552713678800501e-15
        </DataArray>
        <DataArray type="Int32" Name="uid_0_pair_beam_id" format="ascii">
267
267
267
267
267
267
268
268
268
268
268
268
269
269
269
269
269
269
269
269
270
270
270
270
271
271
271
271
271
271
272
272
272
272
272
272
273
273
273
273
273
273
273
273
274
274
274
274
        </DataArray>
        <DataArray type="Int32" Name="uid_1_pair_solid_id" format="ascii">
0
0
1
1
4
4
8
8
4
4
5
5
12
12
13
13
14
14
10
10
15
15
13
13
18
18
17
17
21
21
21
21
22
22
25
25
27
27
29
29
30
30
31
31
30
30
32
32
        </DataArray>
      </PointData>

    </Piece>
  </UnstructuredGrid>
</VTKFile>
