<?xml version="1.0" ?> 
<!-- 
# vtk DataFile Version 3.0
-->
<VTKFile type="UnstructuredGrid" version="0.1" compressor="vtkZLibDataCompressor" byte_order="LittleEndian">
  <UnstructuredGrid>
    <FieldData>
      <DataArray type="Float64" Name="TIME" NumberOfTuples="1" format="ascii">
3.000000000000000e+00 
      </DataArray>
    </FieldData>

    <Piece NumberOfPoints="144" NumberOfCells="24" >
      <Points>
        <DataArray type="Float64" NumberOfComponents="3" format="ascii">
9.973931072023358e-01 7.070273513256649e-02 -6.938893903907228e-17
9.866136483985295e-01 1.604856085446789e-01 9.053228542927573e-02
9.677380497715522e-01 2.489458430537846e-01 1.810742716976263e-01
9.410473093872264e-01 3.354050493183089e-01 2.716221624152878e-01
9.068224253113737e-01 4.191848379966774e-01 3.621721611924967e-01
8.653443956098171e-01 4.996068197473149e-01 4.527204716394889e-01
8.653443956098172e-01 4.996068197473150e-01 4.527204716394889e-01
8.606057705834157e-01 5.077844949056290e-01 4.621765142449014e-01
8.557914246230207e-01 5.159173770345565e-01 4.716324927077273e-01
8.509016777839988e-01 5.240046934520908e-01 4.810884027038982e-01
8.459368501217162e-01 5.320456714762245e-01 4.905442399093451e-01
8.408972616915399e-01 5.400395384249512e-01 4.999999999999999e-01
8.408972616915398e-01 5.400395384249512e-01 5.000000000000000e-01
8.170876849900768e-01 5.757158235670548e-01 5.429253422855891e-01
7.917739045685840e-01 6.103329816742563e-01 5.858486016436824e-01
7.649858644473688e-01 6.438187214866111e-01 6.287693735192814e-01
7.367535086467382e-01 6.761007517441737e-01 6.716872533573865e-01
7.071067811870000e-01 7.071067811870000e-01 7.146018366030000e-01
4.790802794582723e-01 8.767986476933661e-01 1.000000000000000e+00
3.890256016970578e-01 9.201415524530955e-01 1.100009484049564e+00
2.951762298479044e-01 9.545117333401653e-01 1.200019341012200e+00
1.984461689335310e-01 9.795305970780338e-01 1.300024455950053e+00
9.974942397665652e-02 9.948195503901592e-01 1.400019713925271e+00
0.000000000000000e+00 1.000000000000000e+00 1.500000000000000e+00
7.071067811870000e-01 7.071067811870000e-01 7.146018366030000e-01
6.690967767716574e-01 7.430949925337155e-01 7.669700274458290e-01
6.292104186336656e-01 7.769672706542466e-01 8.193429944767483e-01
5.875790665592957e-01 8.086692045435618e-01 8.717200025825729e-01
5.443340803348191e-01 8.381463831966292e-01 9.241003166501179e-01
4.996068197465065e-01 8.653443956084170e-01 9.764832015661983e-01
4.996068197465066e-01 8.653443956084170e-01 9.764832015661981e-01
4.955229120708071e-01 8.676730276519552e-01 9.811865337838428e-01
4.914282091254284e-01 8.699828082651087e-01 9.858898802681226e-01
4.873228059890758e-01 8.722736980649878e-01 9.905932404869608e-01
4.832067977404553e-01 8.745456576687034e-01 9.952966139082789e-01
4.790802794582723e-01 8.767986476933661e-01 1.000000000000000e+00
4.999999999999999e-01 3.000000000000000e-01 2.709523809523774e+00
5.999999999999958e-01 2.999999999999999e-01 2.761904761904752e+00
6.999999999999910e-01 3.000000000000000e-01 2.814285714285731e+00
7.999999999999883e-01 3.000000000000000e-01 2.866666666666708e+00
8.999999999999901e-01 3.000000000000000e-01 2.919047619047674e+00
9.999999999999996e-01 2.999999999999999e-01 2.971428571428627e+00
1.054545454545373e+00 3.000000000000000e-01 3.000000000000000e+00
1.073636363636297e+00 3.000000000000000e-01 3.010000000000002e+00
1.092727272727222e+00 3.000000000000000e-01 3.020000000000003e+00
1.111818181818148e+00 3.000000000000000e-01 3.030000000000003e+00
1.130909090909074e+00 3.000000000000000e-01 3.040000000000002e+00
1.150000000000000e+00 3.000000000000000e-01 3.050000000000000e+00
9.999999999999997e-01 3.000000000000000e-01 2.971428571428627e+00
1.010909090909074e+00 3.000000000000000e-01 2.977142857142902e+00
1.021818181818148e+00 3.000000000000000e-01 2.982857142857177e+00
1.032727272727223e+00 3.000000000000000e-01 2.988571428571452e+00
1.043636363636297e+00 3.000000000000000e-01 2.994285714285726e+00
1.054545454545372e+00 3.000000000000000e-01 3.000000000000000e+00
1.000000000000000e-01 3.000000000000000e-01 2.500000000000000e+00
1.800000000000127e-01 3.000000000000000e-01 2.541904761904731e+00
2.600000000000177e-01 3.000000000000000e-01 2.583809523809476e+00
3.400000000000162e-01 3.000000000000000e-01 2.625714285714233e+00
4.200000000000099e-01 3.000000000000000e-01 2.667619047619000e+00
4.999999999999999e-01 3.000000000000000e-01 2.709523809523774e+00
1.500000000000000e+00 3.000000000000000e-01 3.233333333333286e+00
1.599999999999998e+00 3.000000000000000e-01 3.285714285714262e+00
1.699999999999995e+00 3.000000000000000e-01 3.338095238095243e+00
1.799999999999992e+00 3.000000000000000e-01 3.390476190476223e+00
1.899999999999994e+00 3.000000000000000e-01 3.442857142857195e+00
2.000000000000000e+00 2.999999999999999e-01 3.495238095238156e+00
1.150000000000000e+00 3.000000000000000e-01 3.050000000000000e+00
1.220000000000010e+00 3.000000000000000e-01 3.086666666666638e+00
1.290000000000014e+00 2.999999999999999e-01 3.123333333333286e+00
1.360000000000014e+00 3.000000000000000e-01 3.159999999999946e+00
1.430000000000009e+00 3.000000000000000e-01 3.196666666666613e+00
1.500000000000000e+00 3.000000000000000e-01 3.233333333333286e+00
8.653443956095521e-01 4.996068197471640e-01 5.452720471638520e+00
8.606057705830017e-01 5.077844949057551e-01 5.462176514244124e+00
8.557914246224535e-01 5.159173770349559e-01 5.471632492707142e+00
8.509016777832745e-01 5.240046934527592e-01 5.481088402703506e+00
8.459368501208311e-01 5.320456714771583e-01 5.490544239909148e+00
8.408972616904899e-01 5.400395384261462e-01 5.499999999999999e+00
9.973931072026408e-01 7.070273512785316e-02 4.999999999999999e+00
9.866136483990291e-01 1.604856085406811e-01 5.090532285429301e+00
9.677380497720582e-01 2.489458430506826e-01 5.181074271697498e+00
9.410473093875844e-01 3.354050493162013e-01 5.271622162414896e+00
9.068224253114635e-01 4.191848379955807e-01 5.362172161191801e+00
8.653443956095521e-01 4.996068197471640e-01 5.452720471638520e+00
8.408972616904897e-01 5.400395384261465e-01 5.500000000000000e+00
8.170876849891515e-01 5.757158235680642e-01 5.542925342284895e+00
7.917739045678241e-01 6.103329816750589e-01 5.585848601642335e+00
7.649858644468165e-01 6.438187214871797e-01 5.628769373517326e+00
7.367535086464386e-01 6.761007517444770e-01 5.671687253354878e+00
7.071067811870000e-01 7.071067811870000e-01 5.714601836600000e+00
7.071067811870000e-01 7.071067811870000e-01 5.714601836600000e+00
6.690967767716191e-01 7.430949925337621e-01 5.766970027442925e+00
6.292104186336188e-01 7.769672706543244e-01 5.819342994473974e+00
5.875790665592660e-01 8.086692045436575e-01 5.871720002579959e+00
5.443340803348260e-01 8.381463831967313e-01 5.924100316647687e+00
4.996068197465658e-01 8.653443956085164e-01 5.976483201563967e+00
4.996068197465658e-01 8.653443956085164e-01 5.976483201563967e+00
4.955229120705003e-01 8.676730276522646e-01 5.981186533782057e+00
4.914282091247534e-01 8.699828082656247e-01 5.985889880266783e+00
4.873228059880312e-01 8.722736980657070e-01 5.990593240486069e+00
4.832067977390389e-01 8.745456576696220e-01 5.995296613907833e+00
4.790802794564825e-01 8.767986476944808e-01 5.999999999999999e+00
4.790802794564826e-01 8.767986476944806e-01 6.000000000000000e+00
3.890256016956326e-01 9.201415524538565e-01 6.100009484049631e+00
2.951762298468837e-01 9.545117333406204e-01 6.200019341012337e+00
1.984461689329115e-01 9.795305970782480e-01 6.300024455950227e+00
9.974942397639175e-02 9.948195503902157e-01 6.400019713925412e+00
0.000000000000000e+00 1.000000000000000e+00 6.500000000000000e+00
1.000000000000000e-01 3.000000000000000e-01 7.500000000000000e+00
1.800000000000128e-01 3.000000000000000e-01 7.541904761904729e+00
2.600000000000176e-01 2.999999999999999e-01 7.583809523809474e+00
3.400000000000162e-01 3.000000000000000e-01 7.625714285714233e+00
4.200000000000100e-01 3.000000000000000e-01 7.667619047619000e+00
5.000000000000000e-01 3.000000000000000e-01 7.709523809523774e+00
5.000000000000000e-01 3.000000000000000e-01 7.709523809523774e+00
5.999999999999959e-01 2.999999999999999e-01 7.761904761904751e+00
6.999999999999912e-01 3.000000000000000e-01 7.814285714285733e+00
7.999999999999885e-01 3.000000000000000e-01 7.866666666666709e+00
8.999999999999905e-01 3.000000000000000e-01 7.919047619047674e+00
1.000000000000000e+00 3.000000000000000e-01 7.971428571428629e+00
1.054545454545368e+00 2.999999999999999e-01 7.999999999999998e+00
1.073636363636293e+00 3.000000000000000e-01 8.010000000000000e+00
1.092727272727220e+00 3.000000000000000e-01 8.020000000000001e+00
1.111818181818146e+00 2.999999999999999e-01 8.030000000000001e+00
1.130909090909072e+00 2.999999999999999e-01 8.040000000000001e+00
1.150000000000000e+00 3.000000000000000e-01 8.050000000000001e+00
1.000000000000000e+00 3.000000000000000e-01 7.971428571428629e+00
1.010909090909074e+00 3.000000000000000e-01 7.977142857142901e+00
1.021818181818148e+00 3.000000000000000e-01 7.982857142857179e+00
1.032727272727222e+00 3.000000000000000e-01 7.988571428571452e+00
1.043636363636296e+00 3.000000000000000e-01 7.994285714285724e+00
1.054545454545370e+00 3.000000000000000e-01 8.000000000000000e+00
1.150000000000000e+00 3.000000000000000e-01 8.050000000000001e+00
1.220000000000010e+00 3.000000000000000e-01 8.086666666666639e+00
1.290000000000014e+00 3.000000000000000e-01 8.123333333333287e+00
1.360000000000013e+00 2.999999999999999e-01 8.159999999999945e+00
1.430000000000008e+00 3.000000000000000e-01 8.196666666666616e+00
1.500000000000000e+00 3.000000000000000e-01 8.233333333333286e+00
1.500000000000000e+00 3.000000000000000e-01 8.233333333333286e+00
1.599999999999998e+00 2.999999999999999e-01 8.285714285714262e+00
1.699999999999995e+00 3.000000000000000e-01 8.338095238095244e+00
1.799999999999992e+00 3.000000000000000e-01 8.390476190476223e+00
1.899999999999993e+00 3.000000000000000e-01 8.442857142857196e+00
2.000000000000000e+00 3.000000000000000e-01 8.495238095238156e+00
        </DataArray>
      </Points>

      <Cells>
        <DataArray type="Int32" Name="connectivity" format="ascii">
0 1 2 3 4 5 6 7 8 9 10 11 12 13 14 15 16 17 18 19 20 21 22 23 24 25 26 27 28 29 30 31 32 33 34 35 36 37 38 39 40 41 42 43 44 45 46 47 48 49 50 51 52 53 54 55 56 57 58 59 60 61 62 63 64 65 66 67 68 69 70 71 72 73 74 75 76 77 78 79 80 81 82 83 84 85 86 87 88 89 90 91 92 93 94 95 96 97 98 99 100 101 102 103 104 105 106 107 108 109 110 111 112 113 114 115 116 117 118 119 120 121 122 123 124 125 126 127 128 129 130 131 132 133 134 135 136 137 138 139 140 141 142 143 
        </DataArray>
        <DataArray type="Int32" Name="offsets" format="ascii">
6 12 18 24 30 36 42 48 54 60 66 72 78 84 90 96 102 108 114 120 126 132 138 144 
        </DataArray>
        <DataArray type="UInt8" Name="types" format="ascii">
4 4 4 4 4 4 4 4 4 4 4 4 4 4 4 4 4 4 4 4 4 4 4 4 
        </DataArray>
      </Cells>

  <PointData>
        <DataArray type="Float64" Name="displacement" NumberOfComponents="3" format="ascii">
2.707615691049926e-01 2.561153719977824e-01 2.827427060558616e-02
2.077173219043131e-01 2.354835335542275e-01 1.623583161781290e-02
1.553339834779299e-01 2.130654600523415e-01 7.887019339290702e-03
1.124007615646675e-01 1.894765019706122e-01 2.472351405619300e-03
7.770686390335046e-02 1.653320097875275e-01 -7.636545476015777e-04
5.004149823280379e-02 1.412473339815754e-01 -2.576480884772137e-03
5.004149823280368e-02 1.412473339815751e-01 -2.576480884772137e-03
4.750865621314149e-02 1.387604257420365e-01 -2.714288670377929e-03
4.503788566981015e-02 1.362815820194048e-01 -2.845674777151752e-03
4.262780751658779e-02 1.338115036947425e-01 -2.971499695660906e-03
4.027704266725296e-02 1.313508916491126e-01 -3.092623916472581e-03
3.798421203558244e-02 1.289004467635778e-01 -3.209907930154299e-03
3.798421203558267e-02 1.289004467635779e-01 -3.209907930154410e-03
2.826610376445160e-02 1.179231891478423e-01 -3.717642303341928e-03
1.958451375368486e-02 1.072354845046454e-01 -4.244474264241904e-03
1.181041624664425e-02 9.690290647831123e-02 -4.870910343015566e-03
4.814785486692008e-03 8.699102871316367e-02 -5.677457069824365e-03
-1.531404282810289e-03 7.756542485352680e-02 -6.744620974829862e-03
-2.161505071187775e-02 2.403731839028045e-02 -8.817904435022839e-03
-2.103927591842858e-02 1.042037153881614e-02 -7.482770025157182e-03
-1.779672252178044e-02 5.439666369817520e-04 -5.606628383845846e-03
-1.268055145066896e-02 -4.927696678148741e-03 -3.516263503964945e-03
-6.483923633830185e-03 -5.330418769500467e-03 -1.538459378390700e-03
0.000000000000000e+00 0.000000000000000e+00 0.000000000000000e+00
-1.531404282810289e-03 7.756542485352680e-02 -6.744620974829862e-03
-8.165527588974153e-03 6.656480414652277e-02 -7.999440826012116e-03
-1.334319114008875e-02 5.598356508758828e-02 -8.807217480513385e-03
-1.717838714351394e-02 4.591716571053972e-02 -9.214915970684801e-03
-1.978510780660914e-02 3.646106404919414e-02 -9.269501328877272e-03
-2.127734533673337e-02 2.771071813736803e-02 -9.017938587441598e-03
-2.127734533673337e-02 2.771071813736803e-02 -9.017938587441821e-03
-2.136068722171497e-02 2.696284390528592e-02 -8.981974572699003e-03
-2.143604619373352e-02 2.622149772165350e-02 -8.943955156618943e-03
-2.150350476077534e-02 2.548674867935341e-02 -8.903914332669016e-03
-2.156314543082793e-02 2.475866587126818e-02 -8.861886094314486e-03
-2.161505071187780e-02 2.403731839028045e-02 -8.817904435022839e-03
-1.483646023484936e-02 4.197706054936967e-02 3.819924531525576e-03
-2.132183165458335e-02 6.435019944450943e-02 6.376888275495318e-03
-2.895182185281675e-02 9.106159658856100e-02 9.146731350137660e-03
-3.774348894659474e-02 1.219046063544212e-01 1.191549689857041e-02
-4.771389105296253e-02 1.566725831149864e-01 1.446922806391049e-02
-5.888008628896524e-02 1.951588812431533e-01 1.659396798927792e-02
-6.548085063965081e-02 2.176447320393375e-01 1.749558604811607e-02
-6.787688087541222e-02 2.257554067713836e-01 1.775953432692212e-02
-7.031757282941187e-02 2.339885231275665e-01 1.799430742536590e-02
-7.280304519077330e-02 2.423426432828277e-01 1.819841664738897e-02
-7.533341664861770e-02 2.508163294121090e-01 1.837037329693514e-02
-7.790880589206783e-02 2.594081436903522e-01 1.850868867794908e-02
-5.888008628896535e-02 1.951588812431533e-01 1.659396798927748e-02
-6.017128271041738e-02 1.995735408442503e-01 1.679070592524035e-02
-6.147693521013686e-02 2.040297240066438e-01 1.697951447329649e-02
-6.279706593419865e-02 2.085271624481072e-01 1.716011585925514e-02
-6.413169702867805e-02 2.130655878864137e-01 1.733223230892644e-02
-6.548085063965070e-02 2.176447320393371e-01 1.749558604811607e-02
0.000000000000000e+00 0.000000000000000e+00 0.000000000000000e+00
-1.576416935872238e-03 1.943119782113922e-03 -4.396408781048855e-04
-3.839537671366133e-03 7.218188289184746e-03 -1.679229532802751e-04
-6.798095962408823e-03 1.571940296013563e-02 7.056078637481811e-04
-1.046082556492745e-02 2.734096123388957e-02 2.071405662257497e-03
-1.483646023484925e-02 4.197706054936973e-02 3.819924531525576e-03
-1.268980300668978e-01 4.309708536956848e-01 1.521910758389522e-02
-1.422552852560179e-01 4.854578112324181e-01 1.210701049107632e-02
-1.586846238698771e-01 5.427577611153220e-01 7.948593640593415e-03
-1.764410407471062e-01 6.030792348320420e-01 2.699735171956430e-03
-1.957795307263368e-01 6.666307638702236e-01 -3.683686775319828e-03
-2.169550886461988e-01 7.336208797175116e-01 -1.124579406172588e-02
-7.790880589206783e-02 2.594081436903522e-01 1.850868867794908e-02
-8.743068329055115e-02 2.915974718516391e-01 1.874212360948579e-02
-9.700308117762502e-02 3.247768806325536e-01 1.854501676399734e-02
-1.067134627829409e-01 3.590178963333577e-01 1.790223434333349e-02
-1.166492913361485e-01 3.943920452543140e-01 1.679864254934849e-02
-1.268980300668980e-01 4.309708536956849e-01 1.521910758389478e-02
8.029953512646504e-02 1.987811949687132e-01 -1.986630309183113e-03
7.710354988294976e-02 1.957731729972164e-01 -2.267543426385465e-03
7.398296520837133e-02 1.927722302739049e-01 -2.533818043298552e-03
7.093653880636452e-02 1.897783998148278e-01 -2.785922454330070e-03
6.796302838056456e-02 1.867917146360343e-01 -3.024324953893931e-03
6.506119163460689e-02 1.838122077535738e-01 -3.249493836398720e-03
3.457038900725583e-01 3.504379342118005e-01 3.770033594689970e-02
2.720241811148298e-01 3.189883797401017e-01 2.452579647644360e-02
2.097345864151441e-01 2.880689415766477e-01 1.438097717782760e-02
1.577444106997130e-01 2.577086067247344e-01 6.854730988832713e-03
1.149629586947490e-01 2.279363621876574e-01 1.535910847236366e-03
8.029953512646493e-02 1.987811949687133e-01 -1.986630309182225e-03
6.506119163460677e-02 1.838122077535738e-01 -3.249493836398720e-03
5.275488514758664e-02 1.703772710930820e-01 -4.118128010941469e-03
4.178387033574160e-02 1.570940412263228e-01 -4.767494904768022e-03
3.203191934771554e-02 1.439656070977442e-01 -5.241407616533245e-03
2.338280433215134e-02 1.309950576517940e-01 -5.583679244893780e-03
1.572029743769221e-02 1.181854818329201e-01 -5.838122888502717e-03
1.572029743769221e-02 1.181854818329201e-01 -5.838122888502717e-03
7.790875663336250e-03 1.031542992617704e-01 -5.954866300443840e-03
1.494083477537544e-03 8.912703997140947e-02 -5.788141269261970e-03
-3.319967154269188e-03 7.610781361760655e-02 -5.386693346350668e-03
-6.801164266648452e-03 6.410072985613036e-02 -4.799268083107044e-03
-9.099395894165474e-03 5.310989834275026e-02 -4.074611030925546e-03
-9.099395894165530e-03 5.310989834275026e-02 -4.074611030925546e-03
-9.252977411486674e-03 5.217293809755008e-02 -4.004494601693942e-03
-9.398339302302217e-03 5.124420643704908e-02 -3.933700126112605e-03
-9.535590056133247e-03 5.032370633583161e-02 -3.862262886396906e-03
-9.664838162500855e-03 4.941144076848225e-02 -3.790218164753334e-03
-9.786192110926684e-03 4.850741270958481e-02 -3.717601243399038e-03
-9.786192110926517e-03 4.850741270958492e-02 -3.717601243399038e-03
-1.069720127722062e-02 3.124034990414171e-02 -2.102880329204915e-03
-9.131161562950851e-03 1.772748213205888e-02 -5.845868541856092e-04
-6.130998054441589e-03 7.997404491739246e-03 4.981062880764497e-04
-2.739635838016605e-03 2.078712081585499e-03 8.060262039979449e-04
0.000000000000000e+00 0.000000000000000e+00 0.000000000000000e+00
0.000000000000000e+00 0.000000000000000e+00 0.000000000000000e+00
-2.734610378159530e-03 2.946785311009115e-03 -1.453711663783608e-04
-7.273531167856118e-03 1.175437992160278e-02 1.042533284683955e-03
-1.351796105506847e-02 2.599704238170847e-02 3.370946543879150e-03
-2.136909872577525e-02 4.524903124125362e-02 6.647101801892319e-03
-3.072814286595504e-02 6.908460505016550e-02 1.067823224941300e-02
-3.072814286595504e-02 6.908460505016550e-02 1.067823224941300e-02
-4.439692388704852e-02 1.046761481560119e-01 1.648516098300234e-02
-6.007446039708786e-02 1.459327954598338e-01 2.279404263621299e-02
-7.756778107962492e-02 1.920230206919579e-01 2.922837953461155e-02
-9.668391461821157e-02 2.421152975827107e-01 3.541167400375933e-02
-1.172298896964004e-01 2.953780998624190e-01 4.096742836922385e-02
-1.289704341470570e-01 3.254694993318681e-01 4.359869416796336e-02
-1.331607679465766e-01 3.361409226903505e-01 4.443775689390250e-02
-1.373910021564125e-01 3.468752776020991e-01 4.523012183918951e-02
-1.416597940963520e-01 3.576667783685543e-01 4.597316936073170e-02
-1.459658010861846e-01 3.685096392911555e-01 4.666427981542576e-02
-1.503076804456983e-01 3.793980746713430e-01 4.730083356017900e-02
-1.172298896964004e-01 2.953780998624190e-01 4.096742836922385e-02
-1.195495611478166e-01 3.013450259001687e-01 4.151953447317602e-02
-1.218837018478425e-01 3.073387084132418e-01 4.205920290140330e-02
-1.242320612672263e-01 3.133580678543850e-01 4.258594485753164e-02
-1.265943888767154e-01 3.194020246763452e-01 4.309927154517990e-02
-1.289704341470572e-01 3.254694993318691e-01 4.359869416796336e-02
-1.503076804456983e-01 3.793980746713430e-01 4.730083356017900e-02
-1.665957868220358e-01 4.202750409821156e-01 4.914514477847476e-02
-1.835036609247549e-01 4.628721250571620e-01 5.021829761134633e-02
-2.010496830414974e-01 5.071408390812130e-01 5.052304475533909e-02
-2.192522334599065e-01 5.530326952389992e-01 5.006213890699307e-02
-2.381296924676251e-01 6.004992057152518e-01 4.883833276285365e-02
-2.381296924676251e-01 6.004992057152516e-01 4.883833276285365e-02
-2.663046899020831e-01 6.709439221539449e-01 4.577209703988672e-02
-2.959481494400651e-01 7.443619002164552e-01 4.116256504014260e-02
-3.271136579260097e-01 8.206117760098692e-01 3.501776211797392e-02
-3.598548022043564e-01 8.995521856412743e-01 2.734571362773330e-02
-3.942251691195435e-01 9.810417652177568e-01 1.815444492377338e-02
        </DataArray>
        <DataArray type="Float64" Name="lambda" NumberOfComponents="3" format="ascii">
5.626455585966178e-02 1.415822047780629e-02 -4.649870170482737e-03
3.439868663501332e-02 1.750449901355769e-06 -6.161069492116722e-03
1.730629410966458e-02 -9.358658031307136e-03 -6.970006763386592e-03
4.987378283615565e-03 -1.392300496581919e-02 -7.076681984292343e-03
-2.558060843133733e-03 -1.369129035363482e-02 -6.481095154833976e-03
-5.330023270583305e-03 -8.663514194753997e-03 -5.183246275011493e-03
-5.330023270583305e-03 -8.663514194753995e-03 -5.183246275011493e-03
-5.344222930643316e-03 -7.861855958595733e-03 -5.007207656939830e-03
-5.306361172354803e-03 -7.007889984841422e-03 -4.823509892150291e-03
-5.216437995717768e-03 -6.101616273491062e-03 -4.632152980642878e-03
-5.074453400732209e-03 -5.143034824544652e-03 -4.433136922417589e-03
-4.880407387398129e-03 -4.132145638002191e-03 -4.226461717474423e-03
-4.880407387398127e-03 -4.132145638002188e-03 -4.226461717474423e-03
-3.344855811953017e-03 1.114736250348540e-03 -3.191906953338089e-03
-7.363710980881373e-04 7.439627667499584e-03 -1.999504927519133e-03
2.945046754196509e-03 1.484252861345094e-02 -6.492556400175516e-04
7.699397744900921e-03 2.332343908820261e-02 8.588409091666543e-04
1.352668187402511e-02 3.288235909175460e-02 2.524784720033486e-03
-7.467728458573166e-03 -1.790399200323654e-02 -1.856586289195105e-03
-4.150947056660756e-03 -1.165592320539232e-02 1.324029785030027e-04
4.703934371288829e-03 7.067774912881733e-03 3.950082811365543e-03
1.909691582527560e-02 3.826710235158563e-02 9.596453209392520e-03
3.902799730529953e-02 8.194205911071932e-02 1.707151417258393e-02
6.449717881136063e-02 1.380926451902829e-01 2.637526570093976e-02
1.352668187402511e-02 3.288235909175460e-02 2.524784720033486e-03
6.293644877603793e-03 1.594762176295582e-02 6.045922300272265e-04
5.801171819282099e-04 2.435869699125958e-03 -8.138555625396022e-04
-3.613901213001637e-03 -7.652897099734965e-03 -1.730558657666999e-03
-6.288410307185745e-03 -1.431867863362695e-02 -2.145517055354964e-03
-7.443410100624118e-03 -1.756147490255000e-02 -2.058730755603496e-03
-7.443410100624118e-03 -1.756147490254999e-02 -2.058730755603496e-03
-7.472772709354871e-03 -1.768516686335612e-02 -2.026391455322228e-03
-7.489885849515149e-03 -1.778126455382783e-02 -1.990007358540754e-03
-7.494749521104959e-03 -1.784976797396514e-02 -1.949578465259076e-03
-7.487363724124297e-03 -1.789067712376805e-02 -1.905104775477193e-03
-7.467728458573167e-03 -1.790399200323655e-02 -1.856586289195106e-03
3.499864424052856e-04 -4.502587256871929e-04 2.749515067988517e-04
1.916238153569996e-03 2.113632053049268e-03 1.007981182166583e-03
2.826430672554798e-03 3.341878633459916e-03 1.429574867146928e-03
3.080563999359690e-03 3.234481015544748e-03 1.539732561739886e-03
2.678638133984673e-03 1.791439199303765e-03 1.338454265945458e-03
1.620653076429748e-03 -9.872468152630290e-04 8.257399797636443e-04
7.670495012263705e-04 -3.065851204317294e-03 4.148112326755099e-04
4.221743372641204e-04 -3.887244177733846e-03 2.490955670766230e-04
5.338825563644259e-05 -4.757316414907619e-03 7.202921786112493e-05
-3.393087436566644e-04 -5.676067915838615e-03 -1.163878149709851e-04
-7.559166606151992e-04 -6.643498680526831e-03 -3.161555314197066e-04
-1.196435495239163e-03 -7.659608708972272e-03 -5.272739314850400e-04
1.620653076429747e-03 -9.872468152630318e-04 8.257399797636438e-04
1.465547654558263e-03 -1.371177153477468e-03 7.509669216874454e-04
1.302634586102185e-03 -1.771002761490110e-03 6.724875179405336e-04
1.131913871061514e-03 -2.186723639300952e-03 5.903017685229086e-04
9.533855094362474e-04 -2.618339786910001e-03 5.044096734345700e-04
7.670495012263869e-04 -3.065851204317255e-03 4.148112326755178e-04
-1.247561232405062e-02 -2.406226382388733e-02 -5.771527098544978e-03
-9.070736804769343e-03 -1.763023823039065e-02 -4.163593309780446e-03
-6.085739168483113e-03 -1.205302492382229e-02 -2.754978554863799e-03
-3.520619415191931e-03 -7.330623904182256e-03 -1.545682833795032e-03
-1.375377544895797e-03 -3.463035171470558e-03 -5.357061465741481e-04
3.499864424052878e-04 -4.502587256871894e-04 2.749515067988527e-04
7.615568184661668e-03 1.994154510846116e-03 4.198136205140149e-03
7.529458380201026e-03 4.502374942099155e-03 4.190243679117690e-03
6.286092957262240e-03 6.899485314884351e-03 3.578791282910466e-03
3.885471915845311e-03 9.185485629201707e-03 2.363779016518478e-03
3.275952559502393e-04 1.136037588505122e-02 5.452068799417279e-04
-4.387537022422978e-03 1.342415608243289e-02 -1.876925126819788e-03
-1.196435495239163e-03 -7.659608708972272e-03 -5.272739314850400e-04
1.700075746849257e-03 -5.619968207710140e-03 1.009296768620896e-03
4.029531735883549e-03 -3.634771635097235e-03 2.250123132336382e-03
5.791932471863715e-03 -1.704018991133557e-03 3.195205159661420e-03
6.987277954789754e-03 1.722897241808949e-04 3.844542850596009e-03
7.615568184661669e-03 1.994154510846120e-03 4.198136205140150e-03
-2.823761583077426e-03 -3.901443545060427e-03 -5.852285593092523e-03
-2.959406462750590e-03 -3.706478673095579e-03 -5.770000416622877e-03
-3.058927073191725e-03 -3.497445872090250e-03 -5.678398242015363e-03
-3.122323414400832e-03 -3.274345142044439e-03 -5.577479069269983e-03
-3.149595486377912e-03 -3.037176482958147e-03 -5.467242898386737e-03
-3.140743289122963e-03 -2.785939894831372e-03 -5.347689729365623e-03
4.593793784819201e-02 3.224424806888465e-03 1.109527501595271e-03
2.956117769370410e-02 -7.805069111802244e-04 -1.991373798281427e-03
1.649662767333320e-02 -3.495559605409459e-03 -4.238005757688556e-03
6.744287787079318e-03 -4.920733275799238e-03 -5.630368376626115e-03
3.041580349424406e-04 -5.056027922349559e-03 -6.168461655094104e-03
-2.823761583077426e-03 -3.901443545060426e-03 -5.852285593092523e-03
-3.140743289122960e-03 -2.785939894831358e-03 -5.347689729365617e-03
-2.646317652531865e-03 -1.468502998453301e-03 -4.687797540034531e-03
-1.407407390149891e-03 1.388596766328247e-04 -3.835891449256442e-03
5.759874980229638e-04 2.036148130427016e-03 -2.791971457031351e-03
3.303867011986701e-03 4.223362362929274e-03 -1.556037563359255e-03
6.776231151741315e-03 6.700502374139597e-03 -1.280897682401558e-04
6.776231151741315e-03 6.700502374139597e-03 -1.280897682401558e-04
4.681762561726401e-03 4.605743695174554e-03 -3.387758160710776e-04
2.897893541144748e-03 2.844116575225453e-03 -4.784395457868484e-04
1.424624089996360e-03 1.415621014292296e-03 -5.470809573874686e-04
2.619542082812343e-04 3.202570123750815e-04 -5.447000508729377e-04
-5.901161040006279e-04 -4.419754305261897e-04 -4.712968262432560e-04
-5.901161040006280e-04 -4.419754305261897e-04 -4.712968262432560e-04
-6.514241568492417e-04 -4.941149865678624e-04 -4.612316053425218e-04
-7.102283226452405e-04 -5.435690147481810e-04 -4.505938406256459e-04
-7.665286013886238e-04 -5.903375150671459e-04 -4.393835320926286e-04
-8.203249930793920e-04 -6.344204875247567e-04 -4.276006797434696e-04
-8.716174977175445e-04 -6.758179321210133e-04 -4.152452835781692e-04
-8.716174977175416e-04 -6.758179321210109e-04 -4.152452835781698e-04
-1.369607722837124e-03 -9.204189737526703e-04 -1.702098305562992e-05
-7.355670464616453e-04 4.913240523034799e-05 6.400557651662564e-04
1.030504531408894e-03 2.232836204828044e-03 1.555984961087489e-03
3.928607010774494e-03 5.630692425040417e-03 2.730766604708067e-03
7.958740391635154e-03 1.024270106586747e-02 4.164400696027992e-03
-2.048209592190341e-03 7.809032898400265e-04 1.033821076792638e-03
-1.009778168342205e-03 -7.854712438246076e-04 2.981534920019565e-04
-9.240929236206002e-05 -2.041047179630214e-03 -2.660456291955721e-04
7.038970357500962e-04 -2.985824517576793e-03 -6.587762867999480e-04
1.379140815994263e-03 -3.619803257664345e-03 -8.800384808111711e-04
1.933322048370440e-03 -3.942983399892869e-03 -9.298322112292415e-04
1.933322048370440e-03 -3.942983399892869e-03 -9.298322112292414e-04
2.455804380901350e-03 -3.909898049439236e-03 -7.509468473239230e-04
2.789126482388483e-03 -3.391189889830762e-03 -3.041420090542427e-04
2.933288352831840e-03 -2.386858921067448e-03 4.105823035797993e-04
2.888289992231421e-03 -8.969051431492946e-04 1.393226090578203e-03
2.654131400587225e-03 1.078671443923699e-03 2.643789351940968e-03
2.446679839994669e-03 2.360942667175157e-03 3.438839504357062e-03
2.360775861844732e-03 2.843871661362673e-03 3.735938918277476e-03
2.267977696761703e-03 3.344499800908664e-03 4.042803000643745e-03
2.168285344745581e-03 3.862827085813134e-03 4.359431751455868e-03
2.061698805796368e-03 4.398853516076078e-03 4.685825170713845e-03
1.948218079914063e-03 4.952579091697497e-03 5.021983258417677e-03
2.654131400587225e-03 1.078671443923699e-03 2.643789351940968e-03
2.617143414629078e-03 1.323567063033825e-03 2.796422456092236e-03
2.577904265590748e-03 1.574241994914037e-03 2.952244023409481e-03
2.536413953472235e-03 1.830696239564339e-03 3.111254053892707e-03
2.492672478273539e-03 2.092929796984725e-03 3.273452547541908e-03
2.446679839994661e-03 2.360942667175200e-03 3.438839504357089e-03
1.948218079914063e-03 4.952579091697497e-03 5.021983258417677e-03
3.893672599638671e-03 2.995095619804586e-03 4.659935651248261e-03
5.382649154129796e-03 1.571880875577949e-03 4.288849767553932e-03
6.415147743387443e-03 6.829348590175863e-04 3.908725607334688e-03