<?xml version="1.0" ?> 
<!-- 
# vtk DataFile Version 3.0
-->
<VTKFile type="UnstructuredGrid" version="0.1" compressor="vtkZLibDataCompressor" byte_order="LittleEndian">
  <UnstructuredGrid>
    <FieldData>
      <DataArray type="Float64" Name="TIME" NumberOfTuples="1" format="ascii">
3.000000000000000e+00 
      </DataArray>
    </FieldData>

    <Piece NumberOfPoints="144" NumberOfCells="0" >
      <Points>
        <DataArray type="Float64" NumberOfComponents="3" format="ascii">
9.961533271249772e-01 8.592418384678252e-02 1.528337982331191e-02
9.887948166351245e-01 1.468155374270063e-01 7.667799810771483e-02
9.699057734523874e-01 2.404816442810286e-01 1.723323091259243e-01
9.380670753119248e-01 3.436214899201144e-01 2.803645491270422e-01
9.009383449562890e-01 4.317257829641912e-01 3.760283814780543e-01
8.728438351829586e-01 4.862941241986099e-01 4.374338241997575e-01
8.645497179207684e-01 5.009905353633889e-01 4.543169038318230e-01
8.613358063736754e-01 5.065360022142251e-01 4.607295218781859e-01
8.562595335071098e-01 5.151341387639032e-01 4.707195401452112e-01
8.504256031905372e-01 5.247830668030912e-01 4.820013477889919e-01
8.451705116306315e-01 5.332719929190376e-01 4.919911981986660e-01
8.417533079841824e-01 5.386933026253931e-01 4.984036254144577e-01
8.369844012625143e-01 5.461338450598406e-01 5.072470518605612e-01
8.208293326319028e-01 5.703233495071932e-01 5.363568825278568e-01
7.942826731317090e-01 6.070389578825848e-01 5.817045503305587e-01
7.623226018629760e-01 6.469891358987735e-01 6.329131400689268e-01
7.323077742787819e-01 6.809298918793748e-01 6.782544153420194e-01
7.122098786565071e-01 7.019647732937389e-01 7.073569785881059e-01
4.641820757027363e-01 8.847293964097779e-01 1.016883977387486e+00
4.030747554866602e-01 9.140811066112814e-01 1.084705534588477e+00
3.043774023420243e-01 9.515951681557089e-01 1.190363718097799e+00
1.889884020168890e-01 9.814371024916001e-01 1.309679306070889e+00
8.453087395143087e-02 9.962767781174713e-01 1.415320141478605e+00
1.687503226683148e-02 9.998508504843151e-01 1.483121976289675e+00
7.008269703339651e-01 7.133286624821787e-01 7.234425934339291e-01
6.750380656917668e-01 7.377237166736983e-01 7.589561375426005e-01
6.331395642194958e-01 7.737907594582352e-01 8.142863031150041e-01
5.834721328776935e-01 8.116130623034300e-01 8.767770828577717e-01
5.375825449257529e-01 8.424573708019100e-01 9.321159789766326e-01
5.072563274668251e-01 8.609148991254210e-01 9.676394485080030e-01
4.989181105624470e-01 8.657388507079914e-01 9.772772463162399e-01
4.961485477197375e-01 8.673179129656855e-01 9.804668126475876e-01
4.918240125484835e-01 8.697606269083589e-01 9.854357811279069e-01
4.869258747753884e-01 8.724938773765348e-01 9.910473410530818e-01
4.825760223300798e-01 8.748916482902310e-01 9.960163415429136e-01
4.797776772515959e-01 8.764196165457178e-01 9.992059442646463e-01
5.168826214492115e-01 3.000000000000000e-01 2.718367087425746e+00
5.846976533834305e-01 3.000000000000000e-01 2.753889247010356e+00
6.903452034791921e-01 2.999999999999999e-01 2.809228439917691e+00
8.096547965207874e-01 2.999999999999999e-01 2.871723941034747e+00
9.153023466165575e-01 3.000000000000000e-01 2.927063133942068e+00
9.831173785507854e-01 3.000000000000000e-01 2.962585293526660e+00
1.057768500458407e+00 3.000000000000000e-01 3.001688262144921e+00
1.070715006554950e+00 2.999999999999999e-01 3.008469765338345e+00
1.090884084300523e+00 3.000000000000000e-01 3.019034520347923e+00
1.113661370244847e+00 3.000000000000000e-01 3.030965479652083e+00
1.133830447990420e+00 3.000000000000000e-01 3.041530234661658e+00
1.146776954086965e+00 2.999999999999999e-01 3.048311737855079e+00
1.001841740521729e+00 3.000000000000000e-01 2.972393292654295e+00
1.009239744005451e+00 3.000000000000000e-01 2.976268437336243e+00
1.020764931288608e+00 3.000000000000000e-01 2.982305440198846e+00
1.033780523256763e+00 2.999999999999999e-01 2.989123131229781e+00
1.045305710539920e+00 3.000000000000000e-01 2.995160134092385e+00
1.052703714023642e+00 3.000000000000000e-01 2.999035278774333e+00
1.135060971593723e-01 2.999999999999999e-01 2.507074622321568e+00
1.677581227067583e-01 2.999999999999999e-01 2.535492349989220e+00
2.522761627833781e-01 3.000000000000000e-01 2.579763704315047e+00
3.477238372166552e-01 2.999999999999999e-01 2.629760105208663e+00
4.322418772932615e-01 3.000000000000000e-01 2.674031459534515e+00
4.864939028406323e-01 3.000000000000000e-01 2.702449187202197e+00
1.516882621449212e+00 3.000000000000000e-01 3.242176611235259e+00
1.584697653383433e+00 3.000000000000000e-01 3.277698770819866e+00
1.690345203479197e+00 3.000000000000000e-01 3.333037963727203e+00
1.809654796520792e+00 3.000000000000000e-01 3.395533464844263e+00
1.915302346616560e+00 3.000000000000000e-01 3.450872657751589e+00
1.983117378550787e+00 3.000000000000000e-01 3.486394817336187e+00
1.161817835014451e+00 3.000000000000000e-01 3.056190294531372e+00
1.209288357368413e+00 3.000000000000000e-01 3.081055806240567e+00
1.283241642435455e+00 3.000000000000000e-01 3.119793241275662e+00
1.366758357564573e+00 3.000000000000000e-01 3.163540092057572e+00
1.440711642631604e+00 3.000000000000000e-01 3.202277527092688e+00
1.488182164985553e+00 3.000000000000000e-01 3.227143038801907e+00
8.645497179204786e-01 5.009905353632850e-01 5.454316903830886e+00
8.613358063732844e-01 5.065360022143089e-01 5.460729521877380e+00
8.562595335065575e-01 5.151341387642761e-01 5.470719540144608e+00
8.504256031897977e-01 5.247830668037855e-01 5.482001347788619e+00
8.451705116297215e-01 5.332719929200118e-01 5.491991198198499e+00
8.417533079831607e-01 5.386933026265444e-01 5.498403625414424e+00
9.961533271253297e-01 8.592418384217387e-02 5.015283379823330e+00
9.887948166356072e-01 1.468155374228854e-01 5.076677998107751e+00
9.699057734529000e-01 2.404816442778346e-01 5.172332309125817e+00
9.380670753122617e-01 3.436214899181051e-01 5.280364549126621e+00
9.009383449563292e-01 4.317257829632455e-01 5.376028381477313e+00
8.728438351827582e-01 4.862941241983074e-01 5.437433824198829e+00
8.369844012614825e-01 5.461338450610057e-01 5.507247051860441e+00
8.208293326309560e-01 5.703233495082323e-01 5.536356882527267e+00
7.942826731309313e-01 6.070389578834083e-01 5.581704550329273e+00
7.623226018624460e-01 6.469891358993183e-01 5.632913140066916e+00
7.323077742785251e-01 6.809298918796342e-01 5.678254415339431e+00
7.122098786564531e-01 7.019647732937931e-01 5.707356978585184e+00
7.008269703339561e-01 7.133286624821875e-01 5.723442593430942e+00
6.750380656917324e-01 7.377237166737388e-01 5.758956137539680e+00
6.331395642194487e-01 7.737907594583106e-01 5.814286303112217e+00
5.834721328776665e-01 8.116130623035267e-01 5.876777082855176e+00
5.375825449257670e-01 8.424573708020122e-01 5.932115978974231e+00
5.072563274668750e-01 8.609148991255215e-01 5.967639448505738e+00
4.989181105624446e-01 8.657388507081266e-01 5.977277246314083e+00
4.961485477194867e-01 8.673179129659631e-01 5.980466812645735e+00
4.918240125478444e-01 8.697606269088552e-01 5.985435781126525e+00
4.869258747743078e-01 8.724938773772734e-01 5.991047341052231e+00
4.825760223286064e-01 8.748916482911799e-01 5.996016341542535e+00
4.797776772498691e-01 8.764196165467998e-01 5.999205944264572e+00
4.641820757010034e-01 8.847293964108300e-01 6.016883977387494e+00
4.030747554851756e-01 9.140811066120941e-01 6.084705534588533e+00
3.043774023409640e-01 9.515951681561909e-01 6.190363718097931e+00
1.889884020163066e-01 9.814371024917952e-01 6.309679306071062e+00
8.453087395121349e-02 9.962767781175121e-01 6.415320141478732e+00
1.687503226679499e-02 9.998508504843168e-01 6.483121976289707e+00
1.135060971593723e-01 2.999999999999999e-01 7.507074622321567e+00
1.677581227067583e-01 2.999999999999999e-01 7.535492349989219e+00
2.522761627833781e-01 3.000000000000000e-01 7.579763704315047e+00
3.477238372166552e-01 3.000000000000000e-01 7.629760105208663e+00
4.322418772932615e-01 3.000000000000000e-01 7.674031459534515e+00
4.864939028406322e-01 3.000000000000000e-01 7.702449187202197e+00
5.168826214492114e-01 3.000000000000000e-01 7.718367087425746e+00
5.846976533834305e-01 3.000000000000000e-01 7.753889247010356e+00
6.903452034791921e-01 3.000000000000000e-01 7.809228439917693e+00
8.096547965207876e-01 3.000000000000000e-01 7.871723941034748e+00
9.153023466165577e-01 3.000000000000000e-01 7.927063133942069e+00
9.831173785507862e-01 3.000000000000000e-01 7.962585293526662e+00
1.057768500458402e+00 3.000000000000000e-01 8.001688262144921e+00
1.070715006554946e+00 3.000000000000000e-01 8.008469765338344e+00
1.090884084300520e+00 3.000000000000000e-01 8.019034520347921e+00
1.113661370244845e+00 2.999999999999999e-01 8.030965479652082e+00
1.133830447990420e+00 3.000000000000000e-01 8.041530234661659e+00
1.146776954086965e+00 3.000000000000000e-01 8.048311737855080e+00
1.001841740521729e+00 3.000000000000000e-01 7.972393292654297e+00
1.009239744005451e+00 3.000000000000000e-01 7.976268437336243e+00
1.020764931288608e+00 3.000000000000000e-01 7.982305440198846e+00
1.033780523256762e+00 2.999999999999999e-01 7.989123131229782e+00
1.045305710539918e+00 2.999999999999999e-01 7.995160134092383e+00
1.052703714023641e+00 3.000000000000000e-01 7.999035278774334e+00
1.161817835014451e+00 3.000000000000000e-01 8.056190294531373e+00
1.209288357368413e+00 3.000000000000000e-01 8.081055806240567e+00
1.283241642435455e+00 3.000000000000000e-01 8.119793241275664e+00
1.366758357564573e+00 3.000000000000000e-01 8.163540092057572e+00
1.440711642631603e+00 3.000000000000000e-01 8.202277527092688e+00
1.488182164985553e+00 3.000000000000000e-01 8.227143038801907e+00
1.516882621449212e+00 3.000000000000000e-01 8.242176611235257e+00
1.584697653383433e+00 3.000000000000000e-01 8.277698770819866e+00
1.690345203479196e+00 2.999999999999999e-01 8.333037963727202e+00
1.809654796520792e+00 3.000000000000000e-01 8.395533464844263e+00
1.915302346616560e+00 3.000000000000000e-01 8.450872657751589e+00
1.983117378550787e+00 3.000000000000000e-01 8.486394817336187e+00
        </DataArray>
      </Points>

      <Cells>
        <DataArray type="Int32" Name="connectivity" format="ascii">

        </DataArray>
        <DataArray type="Int32" Name="offsets" format="ascii">

        </DataArray>
        <DataArray type="UInt8" Name="types" format="ascii">

        </DataArray>
      </Cells>

  <PointData>
        <DataArray type="Float64" Name="displacement" NumberOfComponents="3" format="ascii">
2.593182035391917e-01 2.527838557239228e-01 2.595064059885948e-02
2.166435485641239e-01 2.387717698783058e-01 1.782007745101742e-02
1.599600364879664e-01 2.152907549950705e-01 8.553069275698405e-03
1.087110944562276e-01 1.871598195083569e-01 2.076946529402657e-03
7.304809612926078e-02 1.616272865411433e-01 -1.114470162538794e-03
5.427085528798403e-02 1.452829086383124e-01 -2.337926875287721e-03
4.960947398507132e-02 1.408269428714831e-01 -2.600233860711787e-03
4.789218367198322e-02 1.391404759074552e-01 -2.693638425525280e-03
4.527376456275700e-02 1.365205382225726e-01 -2.833245974622589e-03
4.239828109353894e-02 1.335735125806090e-01 -2.983385287951279e-03
3.992246577683090e-02 1.309752397534333e-01 -3.110798550195748e-03
3.836729623431601e-02 1.293134027334186e-01 -3.190339898987593e-03
3.626529076034390e-02 1.270296905833660e-01 -3.297734670788754e-03
2.968281861120670e-02 1.195858362934175e-01 -3.640714588963312e-03
2.038106808426032e-02 1.082529177538863e-01 -4.190549034657876e-03
1.110310772627265e-02 9.592654142112533e-02 -4.939642200278982e-03
3.804796996151549e-03 8.551554459600086e-02 -5.821864094549989e-03
-5.000414524914953e-04 7.911978766803840e-02 -6.542722527316136e-03
-2.173891935884170e-02 2.150442221734727e-02 -8.644451807994891e-03
-2.131995496695693e-02 1.227822622705443e-02 -7.730275272665565e-03
-1.820414301052287e-02 1.315996662530017e-03 -5.802318380808469e-03
-1.211675780824281e-02 -5.198239791942449e-03 -3.315192030094671e-03
-5.490593953721909e-03 -4.902811049569356e-03 -1.266428738724734e-03
-1.080845413321624e-03 -1.330608011818057e-03 -2.149120511225622e-04
-2.758488139495197e-03 7.568289517276094e-02 -6.989844224050246e-03
-7.247574113442345e-03 6.822335734395890e-02 -7.837563714755302e-03
-1.290366479031435e-02 5.698423009599130e-02 -8.747425673478415e-03
-1.748182130664855e-02 4.497605955481332e-02 -9.234837794239947e-03
-2.008283856182580e-02 3.507394269908248e-02 -9.249676093928239e-03
-2.109872898791459e-02 2.913440059567929e-02 -9.079877587941931e-03
-2.129197926202608e-02 2.758400230015190e-02 -9.012012585777773e-03
-2.134845333443824e-02 2.707686489209349e-02 -8.987611955050490e-03
-2.142911631577410e-02 2.629278656600265e-02 -8.947714555903041e-03
-2.150960259454782e-02 2.541616192830576e-02 -8.899942727430665e-03
-2.157158738322767e-02 2.464784458481217e-02 -8.855281610488874e-03
-2.160682693632687e-02 2.415862523207712e-02 -8.825465292100598e-03
-1.585178277725463e-02 4.544100232841813e-02 4.227508040015593e-03
-2.025566703598169e-02 6.064030238315182e-02 5.966488503788447e-03
-2.816476927464051e-02 8.829917837737544e-02 8.875944874427333e-03
-3.865443061452889e-02 1.250934974919241e-01 1.217484354711296e-02
-4.934466433988016e-02 1.623260759479475e-01 1.482749228764302e-02
-5.691031008983516e-02 1.884093503552165e-01 1.627451802744240e-02
-6.588223488339950e-02 2.190053742301054e-01 1.754213066947496e-02
-6.750734073783193e-02 2.245063127362208e-01 1.772099762585277e-02
-7.007997786150888e-02 2.331883322089544e-01 1.797295417925460e-02
-7.304538731966237e-02 2.431555686992043e-01 1.821644472127293e-02
-7.572459136473708e-02 2.521234592907719e-01 1.839375595121728e-02
-7.747084905608426e-02 2.579493936841039e-01 1.848776150843401e-02
-5.909706077458599e-02 1.959012666478310e-01 1.662772695563852e-02
-5.997276310356414e-02 1.988952967701013e-01 1.676110733913161e-02
-6.135024602896166e-02 2.035976850370599e-01 1.696163890490787e-02
-6.292528908967754e-02 2.089635548909692e-01 1.717710783579962e-02
-6.433720752706651e-02 2.137636723577687e-01 1.735780403830489e-02
-6.525205826605951e-02 2.168688070510034e-01 1.746863435969059e-02
-2.183340519228416e-04 8.974237087072678e-05 -1.288246748019084e-04
-1.290904773797980e-03 1.427219250561940e-03 -4.211925764936453e-04
-3.590846920499019e-03 6.566501877137032e-03 -2.221500765400286e-04
-7.120874641110109e-03 1.670703914137478e-02 8.177498178123521e-04
-1.108398397458193e-02 2.938790983573758e-02 2.316896788731260e-03
-1.404734554534992e-02 3.929912832007021e-02 3.502567689065650e-03
-1.294264383213843e-01 4.399812460352986e-01 1.476522628579024e-02
-1.398421410069064e-01 4.769429298116408e-01 1.264994077652037e-02
-1.570445914477716e-01 5.370971134099988e-01 8.396934643472242e-03
-1.782350683327858e-01 6.090708082382660e-01 2.133614108573489e-03
-1.988944882214938e-01 6.766537968131598e-01 -4.763384610240617e-03
-2.132402865996650e-01 7.220610034326476e-01 -9.884523665367961e-03
-7.951654951351972e-02 2.647761433152645e-01 1.857765814572598e-02
-8.597251711596887e-02 2.866093699369412e-01 1.873392632945770e-02
-9.607426200451719e-02 3.215283163480135e-01 1.858324312634529e-02
-1.076615200629230e-01 3.623826386108654e-01 1.781602343828181e-02
-1.181951327202595e-01 3.999096135007553e-01 1.658815641820555e-02
-1.251420741897096e-01 4.247078074574205e-01 1.551981572323147e-02
7.975462558149216e-02 1.982728667261685e-01 -2.035102928553023e-03
7.758769344970284e-02 1.962330130068500e-01 -2.225517419311984e-03
7.428099722346637e-02 1.930616555250659e-01 -2.508735244504123e-03
7.064629212800622e-02 1.894897292830418e-01 -2.809529849913339e-03
6.751436548943857e-02 1.863353141633456e-01 -3.059626999684539e-03
6.554612218439981e-02 1.843147215642856e-01 -3.212387867587374e-03
3.324189605749944e-01 3.450924723872653e-01 3.524594932293557e-02
2.825336190459663e-01 3.237672680778050e-01 2.633523294916351e-02
2.152819419949996e-01 2.910302282080527e-01 1.523968018109301e-02
1.532297135305036e-01 2.548080464866850e-01 6.251490983621544e-03
1.091597292860954e-01 2.234342266144730e-01 8.907142879541752e-04
8.562876329377234e-02 2.036588147232854e-01 -1.500355591825375e-03
6.288490020954984e-02 1.815335264968625e-01 -3.413402629107942e-03
5.454861220457863e-02 1.724233774511968e-01 -4.000507157195798e-03
4.278807935705331e-02 1.583698081414443e-01 -4.713150414864309e-03
3.115061948238207e-02 1.427063918385876e-01 -5.279496099205083e-03
2.214922002070951e-02 1.290243833470659e-01 -5.627215426502019e-03
1.694968471164382e-02 1.203366475142789e-01 -5.799451964421110e-03
1.426063553922474e-02 1.155775629542586e-01 -5.879808528008290e-03
8.894729706438453e-03 1.053894673919982e-01 -5.956585697697747e-03
2.034969390302233e-03 9.043744525662301e-02 -5.815252323743358e-03
-3.711810281206707e-03 7.490434579351013e-02 -5.337312635563585e-03
-7.225774891361336e-03 6.235291551655953e-02 -4.696057577830537e-03
-8.787974185530567e-03 5.489396056862805e-02 -4.204493000300680e-03
-9.125905831671610e-03 5.295113768516768e-02 -4.062822623670748e-03
-9.230011199221289e-03 5.231578183375607e-02 -4.015268879367540e-03
-9.384660389857746e-03 5.133351463164315e-02 -3.940563784142981e-03
-9.548415989629522e-03 5.023526976955450e-02 -3.855333046918652e-03
-9.683917032394185e-03 4.927256936675906e-02 -3.779142273605984e-03
-9.766253606609709e-03 4.865945825741869e-02 -3.729899518989832e-03
-1.015845351787920e-02 4.533010279265159e-02 -3.452753988290702e-03
-1.074429311632369e-02 3.364004240210561e-02 -2.352169350914757e-03
-9.361531893672059e-03 1.886759817575923e-02 -7.175839309665477e-04
-5.804004756404163e-03 7.259284126568510e-03 5.670325583535529e-04
-2.252197193461508e-03 1.511063431609450e-03 7.633207263673114e-04
-3.721313774241106e-04 8.029591746905318e-05 2.287605006321414e-04
-3.308486702904428e-04 6.805582110208652e-05 -1.263431760527567e-04
-2.196764117278954e-03 2.105452400673835e-03 -2.143282694690996e-04
-6.759349820010974e-03 1.066019684545155e-02 8.750292968837670e-04
-1.420747373371156e-02 2.764409672469742e-02 3.648991539763280e-03
-2.270599508371807e-02 4.861000418066674e-02 7.219835399677521e-03
-2.904652448587153e-02 6.475717495031225e-02 9.952956694624149e-03
-3.288658895885099e-02 7.466030456516076e-02 1.160725206076130e-02
-4.217029868439304e-02 9.884197689567309e-02 1.555465892566765e-02
-5.847855771896271e-02 1.417254865396259e-01 2.217345956721584e-02
-7.934570498846949e-02 1.966980413440864e-01 2.984231467899789e-02
-9.974007828049269e-02 2.500810051924718e-01 3.631187899564914e-02
-1.136691342508239e-01 2.861991034493845e-01 4.008962481884470e-02
-1.296750153468638e-01 3.272664521597171e-01 4.374351417012434e-02
-1.325169294105154e-01 3.345037222025376e-01 4.431232154684750e-02
-1.369808786199215e-01 3.458363129306277e-01 4.515572974745652e-02
-1.420739286450541e-01 3.587114867772162e-01 4.604220157259498e-02
-1.466279192969733e-01 3.701730161259947e-01 4.676528819605785e-02
-1.495721980157718e-01 3.775568715307713e-01 4.719730659642352e-02
-1.176204851263105e-01 2.963835498777659e-01 4.106149007116588e-02
-1.191936530820824e-01 3.004301853904902e-01 4.143584311584014e-02
-1.216577211947292e-01 3.067588934993673e-01 4.200765498588144e-02
-1.244595339869897e-01 3.139405440255983e-01 4.263609837993698e-02
-1.269570968452186e-01 3.203289935256943e-01 4.317660813435520e-02
-1.285683436898335e-01 3.244435467298666e-01 4.351537500691105e-02
-1.530148428256231e-01 3.861764147652550e-01 4.766642551443034e-02
-1.640636189133260e-01 4.139072283424781e-01 4.891296431607728e-02
-1.818437013957006e-01 4.586857851277762e-01 5.014824342298496e-02
-2.027781759213370e-01 5.115015869055815e-01 5.051189395025979e-02
-2.220967333423010e-01 5.601953495351737e-01 4.992423800631585e-02
-2.348945424546303e-01 5.923772101513274e-01 4.909835201525858e-02
-2.427856353691700e-01 6.121774565686091e-01 4.842929618339120e-02
-2.618994271141193e-01 6.599680283791207e-01 4.634151416361121e-02
-2.930206065181222e-01 7.371477820951994e-01 4.167469203060747e-02
-3.302051759762226e-01 8.281182225960166e-01 3.434352162130949e-02
-3.650073606499946e-01 9.118603289757341e-01 2.603748495063130e-02
-3.883059458024674e-01 9.671113872979518e-01 1.981241980037218e-02
        </DataArray>
        <DataArray type="Float64" Name="projection_direction" NumberOfComponents="3" format="ascii">
3.930947994632339e-03 1.121485730480853e-02 -4.086311836316393e-03
-1.863286063479297e-04 1.652836769178823e-03 -3.724744756789383e-04
-4.054116589941259e-03 -7.058585071160695e-03 2.441179373188607e-03
-3.674223204206628e-03 -7.347749286779948e-03 2.242533699801985e-03
1.918696268010445e-03 1.409567918559840e-03 5.694507023640272e-05
8.584306356425153e-03 1.177581166075525e-02 -1.909870881020570e-03
1.041265474611197e-02 1.476973478361421e-02 -2.435556689961316e-03
9.457747145282247e-03 1.401956109137370e-02 -2.442299500548528e-03
8.037364293970839e-03 1.288024436585233e-02 -2.452989786056736e-03
6.530723461739218e-03 1.163785884342428e-02 -2.464279907586853e-03
5.281851982197105e-03 1.057818500686269e-02 -2.472526097296257e-03
4.521967059008425e-03 9.918546259377825e-03 -2.476487288371632e-03
3.645912146880481e-03 8.999906587361828e-03 -2.372255471086993e-03
1.190240474555848e-03 6.083698899498335e-03 -1.984674741460357e-03
-1.632228434117144e-03 1.992573538465936e-03 -1.442698202509973e-03
-3.410812945771280e-03 -1.844639919160174e-03 -8.148650615626973e-04
-3.793291905119123e-03 -4.430220409894603e-03 -1.395245729542971e-04
-3.471840631541045e-03 -5.635828996633507e-03 3.989009401341725e-04
1.462864432420163e-03 5.817792564775881e-03 -4.685964280555233e-04
-3.060634485836933e-04 2.086427422630099e-03 -1.541695004798616e-04
-1.489044654298777e-03 -1.696341034873150e-03 -1.435930507354133e-04
-1.315968681712382e-03 -3.157540441125262e-03 -3.936682469298791e-04
-5.624906509533317e-04 -2.173683246477265e-03 -4.079723475602925e-04
-9.143221543263247e-05 -5.246271728411855e-04 -1.222089630954493e-04
-3.121013293496788e-03 -6.129856134859391e-03 7.283675989724347e-04
-2.160563168789098e-03 -6.619848658236394e-03 1.273625914301801e-03
-3.677881895538526e-04 -5.634809187814338e-03 1.592724110884958e-03
1.740631918048074e-03 -1.812330070761758e-03 1.231107405675225e-03
3.327268641874270e-03 4.126500133768696e-03 3.242458471861553e-04
4.045994555167354e-03 9.274932953598269e-03 -5.261686826982803e-04
4.099595728903727e-03 1.059091321185268e-02 -7.623710087141244e-04
3.798755821373678e-03 1.005536996524348e-02 -7.370012790087754e-04
3.339248968995012e-03 9.233270345481492e-03 -6.991464780516932e-04
2.833630129927878e-03 8.322717943557989e-03 -6.587939788125219e-04
2.397583539406112e-03 7.532220184353955e-03 -6.251397162733152e-04
2.123415506210091e-03 7.032603803081017e-03 -6.045454202250333e-04
8.601397746643702e-04 -8.133208535887892e-03 -1.656340759562891e-03
1.858186357162062e-05 -2.113452178543251e-03 -7.297223740652115e-04
-7.878901711491082e-04 3.613735188822742e-03 1.625371054174707e-04
-9.373313361463742e-04 5.005242922987374e-03 6.429731371917491e-04
-3.731786679631588e-04 2.012999823223283e-03 8.817409651333818e-04
3.434739641365869e-04 -1.880029176156039e-03 1.065429809697704e-03
2.469977731817119e-04 -1.341728437445178e-03 3.072785298732228e-04
1.640332002861289e-04 -1.108178549870109e-03 1.496734480106454e-04
6.845346757877735e-05 -8.022648783907460e-04 -7.631073027658530e-05
9.979590618325318e-06 -5.397486814506802e-04 -3.009434055112337e-04
2.158587617984153e-06 -3.788681030967300e-04 -4.708300745002170e-04
1.896354141872614e-05 -3.102007645816585e-04 -5.646600542132951e-04
5.520836458731138e-04 -3.013081994139299e-03 1.095829098740175e-03
4.997640584710750e-04 -2.753084690203522e-03 9.820667738065225e-04
4.265396968452517e-04 -2.370544721235102e-03 8.102931140738789e-04
3.560064551713094e-04 -1.971143259083874e-03 6.246579647490869e-04
3.043467409851175e-04 -1.645999241914331e-03 4.680389359656978e-04
2.765431723962264e-04 -1.451253189499124e-03 3.715053284727432e-04
-4.574087944279326e-04 2.167225233703107e-03 2.179628647938081e-04
-2.141776695639419e-04 2.949750645779181e-03 6.229925134944025e-04
1.412206051488452e-04 2.455011840145849e-03 6.897441309270391e-04
5.195604175621260e-04 -4.751464855672904e-04 8.223266269036245e-05
8.456321645811116e-04 -5.031112196337617e-03 -9.169564563995536e-04
1.055523087309163e-03 -8.865639554776927e-03 -1.723753860391142e-03
6.306598738037295e-04 -1.606855254530304e-03 1.091633179685303e-03
-1.867290998345261e-04 -2.675270213817749e-04 2.972756082209038e-04
-1.021676690112105e-03 1.026581324284681e-03 -4.709912202067734e-04
-9.885118331405263e-04 1.054410617526425e-03 -5.935817670423837e-04
2.390946781183345e-04 -4.634917617736267e-04 1.535855580536705e-05
1.766544185873631e-03 -2.321030438967808e-03 7.866948600838697e-04
5.086496240802596e-05 -2.545478910260801e-04 -6.588596936722979e-04
1.188644802929684e-04 -1.249785043676566e-04 -8.604797778115625e-04
1.714427549595055e-04 -9.854015830756957e-05 -8.765909658392523e-04
2.672215581351889e-04 -4.192643214682157e-04 -4.385411698732966e-04
4.988019133018717e-04 -1.107365441923025e-03 3.731664020292236e-04
7.703020163567498e-04 -1.790128510597677e-03 1.112661647888036e-03
-2.901140193492524e-03 -2.460450858216445e-03 -3.203063031371300e-03
-2.987926709684063e-03 -2.631574682267157e-03 -3.183647143536028e-03
-3.117947645684627e-03 -2.870686349355056e-03 -3.150127906334177e-03
-3.256869359197445e-03 -3.101883999460542e-03 -3.107982327406056e-03
-3.372547568060158e-03 -3.273642617233841e-03 -3.067371150494047e-03
-3.443024272036688e-03 -3.368207660554567e-03 -3.039900371566873e-03
-6.370323464646388e-03 -4.635885373336091e-03 -3.066073203574327e-03
-1.378156127880947e-03 -7.589384640417363e-04 -7.785532279784846e-04
2.586988531041445e-03 2.520391791027254e-03 1.783295353240177e-03
2.590638815766821e-03 2.701951686545634e-03 2.505417440289648e-03
4.593160803478824e-06 4.377393028777155e-04 5.352335753308068e-04
-2.283742544082701e-03 -1.802450439615799e-03 -2.294088341542988e-03
-3.242482299176008e-03 -3.276459673251186e-03 -2.791776312185412e-03
-2.448196556442572e-03 -2.812221998157005e-03 -1.926730527920029e-03
-1.430650529971378e-03 -2.055836745696538e-03 -8.735602558225253e-04
-5.205096391842634e-04 -1.136563925253187e-03 -3.433688645770872e-05
1.613479087178016e-04 -2.417701926790139e-04 4.800737511514441e-04
5.773620099518428e-04 3.865567793167601e-04 7.327771434733066e-04
8.028863407204545e-04 7.456646414969459e-04 8.512759276291249e-04
1.166986656961466e-03 1.368406725894000e-03 1.002214911411059e-03
1.341822825846384e-03 1.834141777773635e-03 9.697809140218894e-04
9.805031235680106e-04 1.646980409480303e-03 6.488057354161469e-04
1.918658592872102e-04 8.979103094136631e-04 2.199758971892507e-04
-5.329159058318211e-04 1.599253814269508e-04 -8.012477901608861e-05
-7.445195961369722e-04 -6.986632397343318e-05 -1.551275436622035e-04
-7.682941147772460e-04 -1.410534341597103e-04 -1.589414321516713e-04
-8.087365960505744e-04 -2.491100397274959e-04 -1.648871075401459e-04
-8.592740817416900e-04 -3.670325688480691e-04 -1.716010227106324e-04
-9.082090013135535e-04 -4.678728286533484e-04 -1.775390681713063e-04
-9.416362595106031e-04 -5.308562098162994e-04 -1.813444095279948e-04
-7.750514666156616e-04 -6.579859439486135e-04 -2.316464180669442e-04
-2.496478560948256e-04 -8.114383325887875e-04 -3.306788576908914e-04
6.238095627297824e-05 -4.888068381033728e-04 -2.505100134468918e-04
-2.510348518169891e-05 -1.407268473030410e-05 -2.812694459208842e-05
-1.102164939235650e-04 1.064549589595565e-04 7.821943217756200e-05
-3.778272366969024e-05 2.891064631815876e-05 3.000517540119318e-05
-3.776061603942282e-04 -2.165898286262458e-03 -6.961592636658409e-04
-2.649562904823710e-04 -1.135687648481376e-03 -2.696000589592629e-04
-1.034389128450330e-04 3.319137168944497e-05 7.337540934226894e-05
1.375976873514428e-04 8.633327152128834e-04 1.904797735221564e-04
4.820481147003730e-04 1.313357630572054e-03 2.555881115249292e-04
8.026675375870651e-04 1.526330666578812e-03 3.662508559383326e-04
7.814866860105241e-04 1.689877769245507e-03 4.737738552469395e-04
3.067102948282052e-04 1.578861237699014e-03 4.855807942449886e-04
-3.609683439415035e-04 2.117456327296874e-04 1.953426595591168e-06
-7.793510310506457e-04 -1.664692219127017e-03 -6.287519070564684e-04
-6.223994994122295e-04 -2.204426166255935e-03 -6.114390376446011e-04
-1.596855454693014e-04 -1.374824292371013e-03 -3.013239733995476e-05
6.289042485733143e-04 4.268518679961808e-05 4.353958216078979e-04
5.257176915447470e-04 8.919892585002032e-05 3.553506797757677e-04
3.817575459994504e-04 1.762943323506683e-04 2.350700439688325e-04
2.406662685898731e-04 3.059769047951688e-04 1.088792624006629e-04
1.316490605053344e-04 4.584397887515967e-04 8.848978170661326e-06
6.818778600448105e-05 5.792673004474391e-04 -4.817431730685939e-05
2.931476886125495e-05 -9.412147131255821e-04 2.149107655444737e-04
1.172892438660034e-04 -8.014446668209718e-04 2.488259063326836e-04
2.548865666841538e-04 -5.865872454359211e-04 3.013649072567404e-04
4.103161505032427e-04 -3.470351080053780e-04 3.605522913225911e-04
5.472239363066844e-04 -1.365116228082552e-04 4.131216934251114e-04
6.344145031814685e-04 -1.668661975817720e-06 4.470713961453043e-04
1.729078262568962e-06 7.280838077245999e-04 -1.062225630725777e-04
-1.344109790886172e-04 1.030459164507724e-03 -2.297739994965298e-04
-1.416691317794871e-04 1.063586775042258e-03 -2.491242530542337e-04
1.076891063545027e-04 6.373048881459509e-04 -3.383613746876790e-05
5.141248525910580e-04 2.691946450694704e-05 3.503698152371726e-04
8.482974881287575e-04 -4.022904130960292e-04 6.856059185675889e-04
6.697361123388923e-04 -4.211488973877575e-04 5.686749995081897e-04
-1.943754447590873e-04 -2.455881733178789e-04 -5.762758921257216e-05
-8.681610185459210e-04 -3.161633786046281e-04 -4.481354804894977e-04
-6.906623439395521e-04 -4.427108359779108e-04 -2.922508479006325e-04
2.511214990750243e-04 -1.392079740087926e-04 1.141809095841495e-04
1.223688715667359e-03 4.616277266034086e-04 3.938883762515388e-04
        </DataArray>