<?xml version="1.0" ?> 
<!-- 
# vtk DataFile Version 3.0
-->
<VTKFile type="UnstructuredGrid" version="0.1" compressor="vtkZLibDataCompressor" byte_order="LittleEndian">
  <UnstructuredGrid>
    <FieldData>
      <DataArray type="Float64" Name="TIME" NumberOfTuples="1" format="ascii">
3.000000000000000e+00 
      </DataArray>
    </FieldData>

    <Piece NumberOfPoints="18" NumberOfCells="0" >
      <Points>
        <DataArray type="Float64" NumberOfComponents="3" format="ascii">
1.000000000000000e+00 0.000000000000000e+00 9.929203673210001e+00
7.071067811870000e-01 7.071067811870000e-01 1.071460183660000e+01
9.229551825141720e-01 3.823005540597842e-01 1.032190275490529e+01
7.071067811870000e-01 7.071067811870000e-01 1.071460183660000e+01
0.000000000000000e+00 1.000000000000000e+00 1.150000000000000e+01
3.823005540592515e-01 9.229551825133410e-01 1.110730091829987e+01
1.000000000000000e-01 3.000000000000000e-01 1.250000000000000e+01
1.150000000000000e+00 3.000000000000000e-01 1.305000000000000e+01
6.250000000000000e-01 3.000000000000000e-01 1.277500000000000e+01
1.150000000000000e+00 3.000000000000000e-01 1.305000000000000e+01
2.200000000000000e+00 3.000000000000000e-01 1.360000000000000e+01
1.675000000000000e+00 3.000000000000000e-01 1.332500000000000e+01
1.000000000000000e+00 0.000000000000000e+00 1.492920367320000e+01
7.071067811870000e-01 7.071067811870000e-01 1.571460183660000e+01
9.229551825146231e-01 3.823005540599710e-01 1.532190275490029e+01
7.071067811870000e-01 7.071067811870000e-01 1.571460183660000e+01
0.000000000000000e+00 1.000000000000000e+00 1.650000000000000e+01
3.823005540592515e-01 9.229551825133410e-01 1.610730091829987e+01
        </DataArray>
      </Points>

      <Cells>
        <DataArray type="Int32" Name="connectivity" format="ascii">

        </DataArray>
        <DataArray type="Int32" Name="offsets" format="ascii">

        </DataArray>
        <DataArray type="UInt8" Name="types" format="ascii">

        </DataArray>
      </Cells>

  <PointData>
        <DataArray type="Float64" Name="displacement" NumberOfComponents="3" format="ascii">
4.152766020603846e-01 3.812278204324595e-01 5.011890794363261e-02
1.658544639857107e-02 1.209435819151021e-01 -6.110604602449499e-03
1.348211949633058e-01 2.452142812849449e-01 3.209747275290553e-03
1.658544639857107e-02 1.209435819151021e-01 -6.110604602449499e-03
0.000000000000000e+00 0.000000000000000e+00 0.000000000000000e+00
-1.054703279965113e-02 3.131395335115761e-02 -2.108509515844403e-03
0.000000000000000e+00 0.000000000000000e+00 0.000000000000000e+00
-1.536579672670246e-01 3.867975551013925e-01 4.713905388113915e-02
-4.945061574943188e-02 1.174042614749153e-01 1.809675689062118e-02
-1.536579672670246e-01 3.867975551013925e-01 4.713905388113915e-02
-4.779336487600585e-01 1.165973617239262e+00 -7.022395682719562e-03
-2.944271248821968e-01 7.367885650183315e-01 4.145661368167630e-02
2.384415422034336e-01 1.680522775158018e-01 3.212745459530453e-02
3.348207863743236e-03 6.989898106718151e-02 -4.718528312483983e-03
6.523178458786016e-02 1.202206556797591e-01 5.372540858139985e-03
3.348207863743236e-03 6.989898106718151e-02 -4.718528312483983e-03
0.000000000000000e+00 0.000000000000000e+00 0.000000000000000e+00
-1.644590898839965e-02 1.295208597509900e-02 -7.268266181480243e-03
        </DataArray>
        <DataArray type="Float64" Name="lambda" NumberOfComponents="3" format="ascii">
6.019122941046499e-02 6.886271404310182e-03 3.992736089185902e-03
6.043892262141078e-03 6.354432228234693e-03 -1.579040538193420e-04
2.912966492642120e-03 -4.931869074836559e-03 -5.836310824437561e-03
6.043892262141078e-03 6.354432228234693e-03 -1.579040538193420e-04
6.878936264252122e-03 8.667201261370853e-03 3.802855174003213e-03
-8.525412725889016e-04 -8.790341925886762e-04 -1.427105115836481e-04
-1.650966662664086e-03 7.941938687822964e-05 1.298745935888890e-03
1.579962500312609e-03 4.459506324163959e-03 4.842990347697763e-03
2.787905189511498e-03 -3.607207994036378e-03 -5.633654854664926e-04
1.579962500312609e-03 4.459506324163959e-03 4.842990347697763e-03
-1.690816828069989e-02 3.043915171145528e-02 -1.411948422277793e-03
5.404956722736873e-03 3.498362211693608e-03 2.076730928315047e-03
9.078323935871872e-02 2.049941684859221e-02 5.506520832420089e-03
2.552029024252716e-02 2.401483721319925e-02 4.385925998022244e-03
-7.675746775094643e-03 -9.455424112931913e-03 -5.622817417838781e-03
2.552029024252716e-02 2.401483721319925e-02 4.385925998022244e-03
8.540609420835940e-02 1.450250279359122e-01 2.705617121445957e-02
-6.451084392255110e-03 -8.162822499004126e-03 -3.181450355226440e-03
        </DataArray>
        <DataArray type="Int32" Name="uid_0_pair_beam_id" format="ascii">
275
275
275
276
276
276
277
277
277
278
278
278
279
279
279
280
280
280
        </DataArray>
        <DataArray type="Int32" Name="uid_1_pair_solid_id" format="ascii">
34
34
34
34
34
34
49
49
49
49
49
49
51
51
51
51
51
51
        </DataArray>
      </PointData>

    </Piece>
  </UnstructuredGrid>
</VTKFile>
