<?xml version="1.0" ?> 
<!-- 
# vtk DataFile Version 3.0
-->
<VTKFile type="UnstructuredGrid" version="0.1" compressor="vtkZLibDataCompressor" byte_order="LittleEndian">
  <UnstructuredGrid>
    <FieldData>
      <DataArray type="Float64" Name="TIME" NumberOfTuples="1" format="ascii">
3.000000000000000e+00 
      </DataArray>
    </FieldData>

    <Piece NumberOfPoints="270" NumberOfCells="0" >
      <Points>
        <DataArray type="Float64" NumberOfComponents="3" format="ascii">
1.500000000000000e+00 3.000000000000000e-01 1.850000000000000e+01
2.000000000000000e+00 3.000000000000000e-01 1.850000000000000e+01
1.707207993010000e+00 3.000000000000000e-01 1.799996097670000e+01
5.000000000000000e-01 3.000000000000000e-01 1.750000000000000e+01
7.544038015000000e-01 3.000000000000000e-01 1.799912997290000e+01
1.000000000000000e+00 3.000000000000000e-01 1.750000000000000e+01
0.000000000000000e+00 3.000000000000000e-01 1.800000000000000e+01
0.000000000000000e+00 3.000000000000000e-01 1.850000000000000e+01
2.924006335830000e-01 3.000000000000000e-01 1.799985499550000e+01
7.544038015000000e-01 3.000000000000000e-01 1.799912997290000e+01
5.000000000000000e-01 3.000000000000000e-01 1.750000000000000e+01
2.924006335830000e-01 3.000000000000000e-01 1.799985499550000e+01
7.544038015000000e-01 3.000000000000000e-01 1.799912997290000e+01
2.924006335830000e-01 3.000000000000000e-01 1.799985499550000e+01
5.000000000000000e-01 3.000000000000000e-01 1.850000000000000e+01
5.000000000000000e-01 3.000000000000000e-01 1.850000000000000e+01
1.000000000000000e+00 3.000000000000000e-01 1.850000000000000e+01
7.544038015000000e-01 3.000000000000000e-01 1.799912997290000e+01
1.000000000000000e+00 3.000000000000000e-01 1.750000000000000e+01
1.243247958050000e+00 3.000000000000000e-01 1.799976586030000e+01
1.500000000000000e+00 3.000000000000000e-01 1.750000000000000e+01
5.000000000000000e-01 3.000000000000000e-01 1.750000000000000e+01
0.000000000000000e+00 3.000000000000000e-01 1.750000000000000e+01
2.924006335830000e-01 3.000000000000000e-01 1.799985499550000e+01
1.243247958050000e+00 3.000000000000000e-01 1.799976586030000e+01
7.544038015000000e-01 3.000000000000000e-01 1.799912997290000e+01
1.000000000000000e+00 3.000000000000000e-01 1.850000000000000e+01
1.707207993010000e+00 3.000000000000000e-01 1.799996097670000e+01
2.000000000000000e+00 3.000000000000000e-01 1.750000000000000e+01
1.500000000000000e+00 3.000000000000000e-01 1.750000000000000e+01
1.500000000000000e+00 3.000000000000000e-01 1.750000000000000e+01
1.243247958050000e+00 3.000000000000000e-01 1.799976586030000e+01
1.707207993010000e+00 3.000000000000000e-01 1.799996097670000e+01
1.243247958050000e+00 3.000000000000000e-01 1.799976586030000e+01
1.000000000000000e+00 3.000000000000000e-01 1.850000000000000e+01
1.500000000000000e+00 3.000000000000000e-01 1.850000000000000e+01
1.707207993010000e+00 3.000000000000000e-01 1.799996097670000e+01
2.000000000000000e+00 3.000000000000000e-01 1.800000000000000e+01
2.000000000000000e+00 3.000000000000000e-01 1.750000000000000e+01
0.000000000000000e+00 3.000000000000000e-01 1.850000000000000e+01
5.000000000000000e-01 3.000000000000000e-01 1.850000000000000e+01
2.924006335830000e-01 3.000000000000000e-01 1.799985499550000e+01
1.243247958050000e+00 3.000000000000000e-01 1.799976586030000e+01
1.000000000000000e+00 3.000000000000000e-01 1.750000000000000e+01
7.544038015000000e-01 3.000000000000000e-01 1.799912997290000e+01
2.000000000000000e+00 3.000000000000000e-01 1.850000000000000e+01
2.000000000000000e+00 3.000000000000000e-01 1.800000000000000e+01
1.707207993010000e+00 3.000000000000000e-01 1.799996097670000e+01
0.000000000000000e+00 3.000000000000000e-01 1.750000000000000e+01
0.000000000000000e+00 3.000000000000000e-01 1.800000000000000e+01
2.924006335830000e-01 3.000000000000000e-01 1.799985499550000e+01
1.243247958050000e+00 3.000000000000000e-01 1.799976586030000e+01
1.500000000000000e+00 3.000000000000000e-01 1.850000000000000e+01
1.707207993010000e+00 3.000000000000000e-01 1.799996097670000e+01
0.000000000000000e+00 1.000000000000000e+00 2.050000000000000e+01
4.329390516020000e-01 9.014231956180000e-01 2.074976147080000e+01
5.000000000000000e-01 8.660254037839999e-01 2.000000000000000e+01
2.220099146240000e-01 9.750444081210000e-01 2.062488073540000e+01
4.668051728700000e-01 8.843601814770000e-01 2.037488073540000e+01
2.588190451030000e-01 9.659258262890000e-01 2.025000000000000e+01
7.282793318550000e-01 6.852803913680000e-01 2.048410264420000e+01
5.000000000000000e-01 8.660254037839999e-01 2.000000000000000e+01
4.329390516020000e-01 9.014231956180000e-01 2.074976147080000e+01
6.207533480730000e-01 7.840059188910000e-01 2.024205132210000e+01
4.668051728700000e-01 8.843601814770000e-01 2.037488073540000e+01
5.905814604920000e-01 8.069780285250000e-01 2.061693205750000e+01
4.329390516020000e-01 9.014231956180000e-01 2.074976147080000e+01
0.000000000000000e+00 1.000000000000000e+00 2.100000000000000e+01
5.000000000000000e-01 8.660254037839999e-01 2.150000000000000e+01
2.220099146240000e-01 9.750444081210000e-01 2.087488073540000e+01
2.588190451030000e-01 9.659258262890000e-01 2.125000000000000e+01
4.668051728700000e-01 8.843601814770000e-01 2.112488073540000e+01
7.282793318550000e-01 6.852803913680000e-01 2.048410264420000e+01
8.660254037839999e-01 5.000000000000000e-01 2.000000000000000e+01
5.000000000000000e-01 8.660254037839999e-01 2.000000000000000e+01
8.025173539410000e-01 5.966287762280000e-01 2.024205132210000e+01
7.071067811870000e-01 7.071067811870000e-01 2.000000000000000e+01
6.207533480730000e-01 7.840059188910000e-01 2.024205132210000e+01
8.660254037839999e-01 5.000000000000000e-01 2.000000000000000e+01
7.282793318550000e-01 6.852803913680000e-01 2.048410264420000e+01
9.504792740630000e-01 3.107879495360000e-01 2.074983937880000e+01
8.025173539410000e-01 5.966287762280000e-01 2.024205132210000e+01
8.600109077700000e-01 5.102756495440000e-01 2.061697101150000e+01
9.131662560400000e-01 4.075872775610000e-01 2.037491968940000e+01
9.504792740630000e-01 3.107879495360000e-01 2.074983937880000e+01
7.283520826140000e-01 6.852030675290000e-01 2.101496824100000e+01
8.660254037839999e-01 5.000000000000000e-01 2.150000000000000e+01
8.600379940360000e-01 5.102299959960001e-01 2.088240380990000e+01
8.025490242590000e-01 5.965861745470000e-01 2.125748412050000e+01
9.131662560400000e-01 4.075872775610000e-01 2.112491968940000e+01
8.660254037839999e-01 5.000000000000000e-01 2.150000000000000e+01
1.000000000000000e+00 0.000000000000000e+00 2.150000000000000e+01
9.504792740630000e-01 3.107879495360000e-01 2.074983937880000e+01
9.659258262890000e-01 2.588190451030000e-01 2.150000000000000e+01
9.875422203790000e-01 1.573542594550000e-01 2.112491968940000e+01
9.131662560400000e-01 4.075872775610000e-01 2.112491968940000e+01
0.000000000000000e+00 1.000000000000000e+00 2.150000000000000e+01
5.000000000000000e-01 8.660254037839999e-01 2.150000000000000e+01
0.000000000000000e+00 1.000000000000000e+00 2.100000000000000e+01
2.588190451030000e-01 9.659258262890000e-01 2.150000000000000e+01
2.588190451030000e-01 9.659258262890000e-01 2.125000000000000e+01
0.000000000000000e+00 1.000000000000000e+00 2.125000000000000e+01
0.000000000000000e+00 1.000000000000000e+00 2.050000000000000e+01
5.000000000000000e-01 8.660254037839999e-01 2.000000000000000e+01
0.000000000000000e+00 1.000000000000000e+00 2.000000000000000e+01
2.588190451030000e-01 9.659258262890000e-01 2.025000000000000e+01
2.588190451030000e-01 9.659258262890000e-01 2.000000000000000e+01
0.000000000000000e+00 1.000000000000000e+00 2.025000000000000e+01
9.504792740630000e-01 3.107879495360000e-01 2.074983937880000e+01
1.000000000000000e+00 0.000000000000000e+00 2.000000000000000e+01
8.660254037839999e-01 5.000000000000000e-01 2.000000000000000e+01
9.875422203790000e-01 1.573542594550000e-01 2.037491968940000e+01
9.659258262890000e-01 2.588190451030000e-01 2.000000000000000e+01
9.131662560400000e-01 4.075872775610000e-01 2.037491968940000e+01
4.329390516020000e-01 9.014231956180000e-01 2.074976147080000e+01
5.000000000000000e-01 8.660254037839999e-01 2.150000000000000e+01
7.283520826140000e-01 6.852030675290000e-01 2.101496824100000e+01
4.668051728700000e-01 8.843601814770000e-01 2.112488073540000e+01
6.207949653770000e-01 7.839729657090000e-01 2.125748412050000e+01
5.906242972910000e-01 8.069466769560000e-01 2.088236485590000e+01
7.282793318550000e-01 6.852803913680000e-01 2.048410264420000e+01
4.329390516020000e-01 9.014231956180000e-01 2.074976147080000e+01
7.283520826140000e-01 6.852030675290000e-01 2.101496824100000e+01
5.905814604920000e-01 8.069780285250000e-01 2.061693205750000e+01
5.906242972910000e-01 8.069466769560000e-01 2.088236485590000e+01
7.283157082610000e-01 6.852417304140000e-01 2.074953544260000e+01
7.282793318550000e-01 6.852803913680000e-01 2.048410264420000e+01
7.283520826140000e-01 6.852030675290000e-01 2.101496824100000e+01
9.504792740630000e-01 3.107879495360000e-01 2.074983937880000e+01
7.283157082610000e-01 6.852417304140000e-01 2.074953544260000e+01
8.600379940360000e-01 5.102299959960001e-01 2.088240380990000e+01
8.600109077700000e-01 5.102756495440000e-01 2.061697101150000e+01
4.329390516020000e-01 9.014231956180000e-01 2.074976147080000e+01
0.000000000000000e+00 1.000000000000000e+00 2.050000000000000e+01
0.000000000000000e+00 1.000000000000000e+00 2.100000000000000e+01
2.220099146240000e-01 9.750444081210000e-01 2.062488073540000e+01
0.000000000000000e+00 1.000000000000000e+00 2.075000000000000e+01
2.220099146240000e-01 9.750444081210000e-01 2.087488073540000e+01
1.000000000000000e+00 0.000000000000000e+00 2.050000000000000e+01
1.000000000000000e+00 0.000000000000000e+00 2.000000000000000e+01
9.504792740630000e-01 3.107879495360000e-01 2.074983937880000e+01
1.000000000000000e+00 0.000000000000000e+00 2.025000000000000e+01
9.875422203790000e-01 1.573542594550000e-01 2.037491968940000e+01
9.875422203790000e-01 1.573542594550000e-01 2.062491968940000e+01
9.504792740630000e-01 3.107879495360000e-01 2.074983937880000e+01
1.000000000000000e+00 0.000000000000000e+00 2.150000000000000e+01
1.000000000000000e+00 0.000000000000000e+00 2.100000000000000e+01
9.875422203790000e-01 1.573542594550000e-01 2.112491968940000e+01
1.000000000000000e+00 0.000000000000000e+00 2.125000000000000e+01
9.875422203790000e-01 1.573542594550000e-01 2.087491968940000e+01
7.283520826140000e-01 6.852030675290000e-01 2.101496824100000e+01
5.000000000000000e-01 8.660254037839999e-01 2.150000000000000e+01
8.660254037839999e-01 5.000000000000000e-01 2.150000000000000e+01
6.207949653770000e-01 7.839729657090000e-01 2.125748412050000e+01
7.071067811870000e-01 7.071067811870000e-01 2.150000000000000e+01
8.025490242590000e-01 5.965861745470000e-01 2.125748412050000e+01
9.504792740630000e-01 3.107879495360000e-01 2.074983937880000e+01
1.000000000000000e+00 0.000000000000000e+00 2.100000000000000e+01
1.000000000000000e+00 0.000000000000000e+00 2.050000000000000e+01
9.875422203790000e-01 1.573542594550000e-01 2.087491968940000e+01
1.000000000000000e+00 0.000000000000000e+00 2.075000000000000e+01
9.875422203790000e-01 1.573542594550000e-01 2.062491968940000e+01
1.243247958050000e+00 3.000000000000000e-01 2.299976586030000e+01
1.000000000000000e+00 3.000000000000000e-01 2.350000000000000e+01
1.500000000000000e+00 3.000000000000000e-01 2.350000000000000e+01
1.121623979020000e+00 3.000000000000000e-01 2.324988293010000e+01
1.250000000000000e+00 3.000000000000000e-01 2.350000000000000e+01
1.371623979020000e+00 3.000000000000000e-01 2.324988293010000e+01
1.000000000000000e+00 3.000000000000000e-01 2.250000000000000e+01
1.243247958050000e+00 3.000000000000000e-01 2.299976586030000e+01
1.500000000000000e+00 3.000000000000000e-01 2.250000000000000e+01
1.121623979020000e+00 3.000000000000000e-01 2.274988293010000e+01
1.371623979020000e+00 3.000000000000000e-01 2.274988293010000e+01
1.250000000000000e+00 3.000000000000000e-01 2.250000000000000e+01
1.243247958050000e+00 3.000000000000000e-01 2.299976586030000e+01
7.544038015000000e-01 3.000000000000000e-01 2.299912997290000e+01
1.000000000000000e+00 3.000000000000000e-01 2.350000000000000e+01
9.988258797739999e-01 3.000000000000000e-01 2.299944791660000e+01
8.772019007500000e-01 3.000000000000000e-01 2.324956498650000e+01
1.121623979020000e+00 3.000000000000000e-01 2.324988293010000e+01
5.000000000000000e-01 3.000000000000000e-01 2.350000000000000e+01
1.000000000000000e+00 3.000000000000000e-01 2.350000000000000e+01
7.544038015000000e-01 3.000000000000000e-01 2.299912997290000e+01
7.500000000000000e-01 3.000000000000000e-01 2.350000000000000e+01
8.772019007500000e-01 3.000000000000000e-01 2.324956498650000e+01
6.272019007500000e-01 3.000000000000000e-01 2.324956498650000e+01
1.243247958050000e+00 3.000000000000000e-01 2.299976586030000e+01
1.500000000000000e+00 3.000000000000000e-01 2.350000000000000e+01
1.707207993010000e+00 3.000000000000000e-01 2.299996097670000e+01
1.371623979020000e+00 3.000000000000000e-01 2.324988293010000e+01
1.603603996500000e+00 3.000000000000000e-01 2.324998048840000e+01
1.475227975530000e+00 3.000000000000000e-01 2.299986341850000e+01
7.544038015000000e-01 3.000000000000000e-01 2.299912997290000e+01
2.924006335830000e-01 3.000000000000000e-01 2.299985499550000e+01
5.000000000000000e-01 3.000000000000000e-01 2.350000000000000e+01
5.234022175420000e-01 3.000000000000000e-01 2.299949248420000e+01
3.962003167920000e-01 3.000000000000000e-01 2.324992749770000e+01
6.272019007500000e-01 3.000000000000000e-01 2.324956498650000e+01
2.000000000000000e+00 3.000000000000000e-01 2.350000000000000e+01
2.000000000000000e+00 3.000000000000000e-01 2.300000000000000e+01
1.707207993010000e+00 3.000000000000000e-01 2.299996097670000e+01
2.000000000000000e+00 3.000000000000000e-01 2.325000000000000e+01
1.853603996500000e+00 3.000000000000000e-01 2.299998048840000e+01
1.853603996500000e+00 3.000000000000000e-01 2.324998048840000e+01
1.500000000000000e+00 3.000000000000000e-01 2.350000000000000e+01
2.000000000000000e+00 3.000000000000000e-01 2.350000000000000e+01
1.707207993010000e+00 3.000000000000000e-01 2.299996097670000e+01
1.750000000000000e+00 3.000000000000000e-01 2.350000000000000e+01
1.853603996500000e+00 3.000000000000000e-01 2.324998048840000e+01
1.603603996500000e+00 3.000000000000000e-01 2.324998048840000e+01
1.707207993010000e+00 3.000000000000000e-01 2.299996097670000e+01
2.000000000000000e+00 3.000000000000000e-01 2.250000000000000e+01
1.500000000000000e+00 3.000000000000000e-01 2.250000000000000e+01
1.853603996500000e+00 3.000000000000000e-01 2.274998048840000e+01
1.750000000000000e+00 3.000000000000000e-01 2.250000000000000e+01
1.603603996500000e+00 3.000000000000000e-01 2.274998048840000e+01
0.000000000000000e+00 3.000000000000000e-01 2.300000000000000e+01
0.000000000000000e+00 3.000000000000000e-01 2.350000000000000e+01
2.924006335830000e-01 3.000000000000000e-01 2.299985499550000e+01
0.000000000000000e+00 3.000000000000000e-01 2.325000000000000e+01
1.462003167920000e-01 3.000000000000000e-01 2.324992749770000e+01
1.462003167920000e-01 3.000000000000000e-01 2.299992749770000e+01
5.000000000000000e-01 3.000000000000000e-01 2.250000000000000e+01
7.544038015000000e-01 3.000000000000000e-01 2.299912997290000e+01
1.000000000000000e+00 3.000000000000000e-01 2.250000000000000e+01
6.272019007500000e-01 3.000000000000000e-01 2.274956498650000e+01
8.772019007500000e-01 3.000000000000000e-01 2.274956498650000e+01
7.500000000000000e-01 3.000000000000000e-01 2.250000000000000e+01
0.000000000000000e+00 3.000000000000000e-01 2.250000000000000e+01
0.000000000000000e+00 3.000000000000000e-01 2.300000000000000e+01
2.924006335830000e-01 3.000000000000000e-01 2.299985499550000e+01
0.000000000000000e+00 3.000000000000000e-01 2.275000000000000e+01
1.462003167920000e-01 3.000000000000000e-01 2.299992749770000e+01
1.462003167920000e-01 3.000000000000000e-01 2.274992749770000e+01
7.544038015000000e-01 3.000000000000000e-01 2.299912997290000e+01
5.000000000000000e-01 3.000000000000000e-01 2.250000000000000e+01
2.924006335830000e-01 3.000000000000000e-01 2.299985499550000e+01
6.272019007500000e-01 3.000000000000000e-01 2.274956498650000e+01
3.962003167920000e-01 3.000000000000000e-01 2.274992749770000e+01
5.234022175420000e-01 3.000000000000000e-01 2.299949248420000e+01
1.500000000000000e+00 3.000000000000000e-01 2.250000000000000e+01
1.243247958050000e+00 3.000000000000000e-01 2.299976586030000e+01
1.707207993010000e+00 3.000000000000000e-01 2.299996097670000e+01
1.371623979020000e+00 3.000000000000000e-01 2.274988293010000e+01
1.475227975530000e+00 3.000000000000000e-01 2.299986341850000e+01
1.603603996500000e+00 3.000000000000000e-01 2.274998048840000e+01
1.243247958050000e+00 3.000000000000000e-01 2.299976586030000e+01
1.000000000000000e+00 3.000000000000000e-01 2.250000000000000e+01
7.544038015000000e-01 3.000000000000000e-01 2.299912997290000e+01
1.121623979020000e+00 3.000000000000000e-01 2.274988293010000e+01
8.772019007500000e-01 3.000000000000000e-01 2.274956498650000e+01
9.988258797739999e-01 3.000000000000000e-01 2.299944791660000e+01
0.000000000000000e+00 3.000000000000000e-01 2.350000000000000e+01
5.000000000000000e-01 3.000000000000000e-01 2.350000000000000e+01
2.924006335830000e-01 3.000000000000000e-01 2.299985499550000e+01
2.500000000000000e-01 3.000000000000000e-01 2.350000000000000e+01
3.962003167920000e-01 3.000000000000000e-01 2.324992749770000e+01
1.462003167920000e-01 3.000000000000000e-01 2.324992749770000e+01
5.000000000000000e-01 3.000000000000000e-01 2.250000000000000e+01
0.000000000000000e+00 3.000000000000000e-01 2.250000000000000e+01
2.924006335830000e-01 3.000000000000000e-01 2.299985499550000e+01
2.500000000000000e-01 3.000000000000000e-01 2.250000000000000e+01
1.462003167920000e-01 3.000000000000000e-01 2.274992749770000e+01
3.962003167920000e-01 3.000000000000000e-01 2.274992749770000e+01
1.707207993010000e+00 3.000000000000000e-01 2.299996097670000e+01
2.000000000000000e+00 3.000000000000000e-01 2.300000000000000e+01
2.000000000000000e+00 3.000000000000000e-01 2.250000000000000e+01
1.853603996500000e+00 3.000000000000000e-01 2.299998048840000e+01
2.000000000000000e+00 3.000000000000000e-01 2.275000000000000e+01
1.853603996500000e+00 3.000000000000000e-01 2.274998048840000e+01
        </DataArray>
      </Points>

      <Cells>
        <DataArray type="Int32" Name="connectivity" format="ascii">

        </DataArray>
        <DataArray type="Int32" Name="offsets" format="ascii">

        </DataArray>
        <DataArray type="UInt8" Name="types" format="ascii">

        </DataArray>
      </Cells>

  <PointData>
        <DataArray type="Int32" Name="coupling_id" format="ascii">
8
8
8
8
8
8
8
8
8
8
8
8
8
8
8
8
8
8
8
8
8
8
8
8
8
8
8
8
8
8
8
8
8
8
8
8
8
8
8
8
8
8
8
8
8
8
8
8
8
8
8
8
8
8
9
9
9
9
9
9
9
9
9
9
9
9
9
9
9
9
9
9
9
9
9
9
9
9
9
9
9
9
9
9
9
9
9
9
9
9
9
9
9
9
9
9
9
9
9
9
9
9
9
9
9
9
9
9
9
9
9
9
9
9
9
9
9
9
9
9
9
9
9
9
9
9
9
9
9
9
9
9
9
9
9
9
9
9
9
9
9
9
9
9
9
9
9
9
9
9
9
9
9
9
9
9
9
9
9
9
9
9
10
10
10
10
10
10
10
10
10
10
10
10
10
10
10
10
10
10
10
10
10
10
10
10
10
10
10
10
10
10
10
10
10
10
10
10
10
10
10
10
10
10
10
10
10
10
10
10
10
10
10
10
10
10
10
10
10
10
10
10
10
10
10
10
10
10
10
10
10
10
10
10
10
10
10
10
10
10
10
10
10
10
10
10
10
10
10
10
10
10
10
10
10
10
10
10
10
10
10
10
10
10
10
10
10
10
10
10
        </DataArray>
        <DataArray type="Float64" Name="displacement" NumberOfComponents="3" format="ascii">
-6.127006013045366e-02 2.867912904220252e-01 1.449234387132137e-02
-9.207500863562745e-02 4.599100892675075e-01 3.511204179634575e-03
-6.082197790561139e-02 3.034081110891790e-01 1.440743576922188e-02
-4.753642114906365e-03 1.138784981100205e-02 1.853573817452769e-03
-2.017975214327705e-02 7.580837722996447e-02 8.532711110863289e-03
-2.008362871729541e-02 9.413726350981327e-02 1.348112947119873e-02
0.000000000000000e+00 0.000000000000000e+00 0.000000000000000e+00
0.000000000000000e+00 0.000000000000000e+00 0.000000000000000e+00
-6.637058448114352e-03 1.238117384085480e-02 -4.282938842479211e-04
-2.017975214327705e-02 7.580837722996447e-02 8.532711110863289e-03
-4.753642114906365e-03 1.138784981100205e-02 1.853573817452769e-03
-6.637058448114352e-03 1.238117384085480e-02 -4.282938842479211e-04
-2.017975214327705e-02 7.580837722996447e-02 8.532711110863289e-03
-6.637058448114352e-03 1.238117384085480e-02 -4.282938842479211e-04
-2.373868963192616e-02 4.758940952492297e-02 5.752017586196700e-03
-2.373868963192616e-02 4.758940952492297e-02 5.752017586196700e-03
-4.208383438179619e-02 1.473696483805003e-01 1.289187828382410e-02
-2.017975214327705e-02 7.580837722996447e-02 8.532711110863289e-03
-2.008362871729541e-02 9.413726350981327e-02 1.348112947119873e-02
-3.974744494326932e-02 1.763069938136256e-01 1.502484168497631e-02
-4.149359267873853e-02 2.064338867039595e-01 1.755741695982493e-02
-4.753642114906365e-03 1.138784981100205e-02 1.853573817452769e-03
0.000000000000000e+00 0.000000000000000e+00 0.000000000000000e+00
-6.637058448114352e-03 1.238117384085480e-02 -4.282938842479211e-04
-3.974744494326932e-02 1.763069938136256e-01 1.502484168497631e-02
-2.017975214327705e-02 7.580837722996447e-02 8.532711110863289e-03
-4.208383438179619e-02 1.473696483805003e-01 1.289187828382410e-02
-6.082197790561139e-02 3.034081110891790e-01 1.440743576922188e-02
-6.421554788869344e-02 3.371628534550177e-01 1.291670182945737e-02
-4.149359267873853e-02 2.064338867039595e-01 1.755741695982493e-02
-4.149359267873853e-02 2.064338867039595e-01 1.755741695982493e-02
-3.974744494326932e-02 1.763069938136256e-01 1.502484168497631e-02
-6.082197790561139e-02 3.034081110891790e-01 1.440743576922188e-02
-3.974744494326932e-02 1.763069938136256e-01 1.502484168497631e-02
-4.208383438179619e-02 1.473696483805003e-01 1.289187828382410e-02
-6.127006013045366e-02 2.867912904220252e-01 1.449234387132137e-02
-6.082197790561139e-02 3.034081110891790e-01 1.440743576922188e-02
-7.475148873833515e-02 3.890838887692550e-01 8.155138990048272e-03
-6.421554788869344e-02 3.371628534550177e-01 1.291670182945737e-02
0.000000000000000e+00 0.000000000000000e+00 0.000000000000000e+00
-2.373868963192616e-02 4.758940952492297e-02 5.752017586196700e-03
-6.637058448114352e-03 1.238117384085480e-02 -4.282938842479211e-04
-3.974744494326932e-02 1.763069938136256e-01 1.502484168497631e-02
-2.008362871729541e-02 9.413726350981327e-02 1.348112947119873e-02
-2.017975214327705e-02 7.580837722996447e-02 8.532711110863289e-03
-9.207500863562745e-02 4.599100892675075e-01 3.511204179634575e-03
-7.475148873833515e-02 3.890838887692550e-01 8.155138990048272e-03
-6.082197790561139e-02 3.034081110891790e-01 1.440743576922188e-02
0.000000000000000e+00 0.000000000000000e+00 0.000000000000000e+00
0.000000000000000e+00 0.000000000000000e+00 0.000000000000000e+00
-6.637058448114352e-03 1.238117384085480e-02 -4.282938842479211e-04
-3.974744494326932e-02 1.763069938136256e-01 1.502484168497631e-02
-6.127006013045366e-02 2.867912904220252e-01 1.449234387132137e-02
-6.082197790561139e-02 3.034081110891790e-01 1.440743576922188e-02
0.000000000000000e+00 0.000000000000000e+00 0.000000000000000e+00
-1.263097452001766e-02 4.496809904880616e-02 -5.859092168833513e-03
-1.079174947002542e-02 6.346956540538240e-02 -6.355418767775234e-03
-1.054297053321504e-02 1.176063433145924e-02 -4.060517284070642e-03
-1.120226206532182e-02 5.460279490688935e-02 -6.757602387683193e-03
-1.147640086270413e-02 1.561901311790648e-02 -4.568101929510959e-03
2.375951504604135e-02 1.385493546579770e-01 -6.168678556214502e-03
-1.079174947002542e-02 6.346956540538240e-02 -6.355418767775234e-03
-1.263097452001766e-02 4.496809904880616e-02 -5.859092168833513e-03
3.997271473935915e-03 1.036595392051406e-01 -5.887197505465736e-03
-1.120226206532182e-02 5.460279490688935e-02 -6.757602387683193e-03
-1.662210890213345e-03 8.646864824977785e-02 -6.430044051516148e-03
-1.263097452001766e-02 4.496809904880616e-02 -5.859092168833513e-03
0.000000000000000e+00 0.000000000000000e+00 0.000000000000000e+00
-1.020722170309296e-02 3.136814837289037e-02 1.897730446778212e-04
-1.083805963197504e-02 1.199084722657984e-02 -3.508621374926690e-03
-8.952860835591825e-03 1.309892166682813e-02 7.490438613899641e-05
-1.150932549082301e-02 4.251253939552513e-02 -3.069717924713444e-03
2.375951504604135e-02 1.385493546579770e-01 -6.168678556214502e-03
1.039756529661582e-01 2.377953896426434e-01 8.305967225147981e-03
-1.079174947002542e-02 6.346956540538240e-02 -6.355418767775234e-03
5.533539329989690e-02 1.834371294386644e-01 -1.545640236717105e-03
2.426192362771429e-02 1.463509879608841e-01 -2.782011921780736e-03
3.997271473935915e-03 1.036595392051406e-01 -5.887197505465736e-03
1.039756529661582e-01 2.377953896426434e-01 8.305967225147981e-03
2.375951504604135e-02 1.385493546579770e-01 -6.168678556214502e-03
1.161423004164043e-01 2.164802929844546e-01 3.465604630292773e-03
5.533539329989690e-02 1.834371294386644e-01 -1.545640236717105e-03
6.604961306017498e-02 1.842158596306939e-01 -3.796708241701197e-03
1.177024358588667e-01 2.325418803578322e-01 1.121845751011818e-03
1.161423004164043e-01 2.164802929844546e-01 3.465604630292773e-03
1.529293065565118e-02 1.091793772203666e-01 -1.904838309286561e-03
3.637853653222356e-02 1.102352880045829e-01 -1.797954177106931e-03
5.566384547259084e-02 1.630993343179393e-01 -4.252281542740377e-04
2.588959869353791e-02 1.125922235987541e-01 -7.734459232189295e-04
7.004765413225067e-02 1.606320236533879e-01 -6.176997372904225e-04
3.637853653222356e-02 1.102352880045829e-01 -1.797954177106931e-03
1.474823804909766e-01 1.593819997751912e-01 -2.145212441875088e-02
1.161423004164043e-01 2.164802929844546e-01 3.465604630292773e-03
8.627380725198264e-02 1.428270279701769e-01 -7.681677128456244e-03
1.350355107502462e-01 1.922651874837153e-01 -7.037625259428637e-03
7.004765413225067e-02 1.606320236533879e-01 -6.176997372904225e-04
0.000000000000000e+00 0.000000000000000e+00 0.000000000000000e+00
-1.020722170309296e-02 3.136814837289037e-02 1.897730446778212e-04
0.000000000000000e+00 0.000000000000000e+00 0.000000000000000e+00
-5.360103203101985e-03 8.218505021587386e-03 1.612374984091502e-03
-8.952860835591825e-03 1.309892166682813e-02 7.490438613899641e-05
0.000000000000000e+00 0.000000000000000e+00 0.000000000000000e+00
0.000000000000000e+00 0.000000000000000e+00 0.000000000000000e+00
-1.079174947002542e-02 6.346956540538240e-02 -6.355418767775234e-03
0.000000000000000e+00 0.000000000000000e+00 0.000000000000000e+00
-1.147640086270413e-02 1.561901311790648e-02 -4.568101929510959e-03
-1.092206241221894e-02 1.363000183413043e-02 -4.907754870487224e-03
0.000000000000000e+00 0.000000000000000e+00 0.000000000000000e+00
1.161423004164043e-01 2.164802929844546e-01 3.465604630292773e-03
3.680804765351264e-01 3.553574541575777e-01 3.548009482321035e-02
1.039756529661582e-01 2.377953896426434e-01 8.305967225147981e-03
2.147534803758459e-01 2.838217649062242e-01 1.281101445859889e-02
2.383596638142143e-01 3.105353652535268e-01 2.367693535126136e-02
1.177024358588667e-01 2.325418803578322e-01 1.121845751011818e-03
-1.263097452001766e-02 4.496809904880616e-02 -5.859092168833513e-03
-1.020722170309296e-02 3.136814837289037e-02 1.897730446778212e-04
1.529293065565118e-02 1.091793772203666e-01 -1.904838309286561e-03
-1.150932549082301e-02 4.251253939552513e-02 -3.069717924713444e-03
-2.533997297442858e-03 6.712765315172531e-02 -1.135696452507773e-03
-1.322927339127866e-03 7.868919967821997e-02 -4.936575466555126e-03
2.375951504604135e-02 1.385493546579770e-01 -6.168678556214502e-03
-1.263097452001766e-02 4.496809904880616e-02 -5.859092168833513e-03
1.529293065565118e-02 1.091793772203666e-01 -1.904838309286561e-03
-1.662210890213345e-03 8.646864824977785e-02 -6.430044051516148e-03
-1.322927339127866e-03 7.868919967821997e-02 -4.936575466555126e-03
2.135812506680579e-02 1.273073451166932e-01 -4.541295226406561e-03
2.375951504604135e-02 1.385493546579770e-01 -6.168678556214502e-03
1.529293065565118e-02 1.091793772203666e-01 -1.904838309286561e-03
1.161423004164043e-01 2.164802929844546e-01 3.465604630292773e-03
2.135812506680579e-02 1.273073451166932e-01 -4.541295226406561e-03
5.566384547259084e-02 1.630993343179393e-01 -4.252281542740377e-04
6.604961306017498e-02 1.842158596306939e-01 -3.796708241701197e-03
-1.263097452001766e-02 4.496809904880616e-02 -5.859092168833513e-03
0.000000000000000e+00 0.000000000000000e+00 0.000000000000000e+00
0.000000000000000e+00 0.000000000000000e+00 0.000000000000000e+00
-1.054297053321504e-02 1.176063433145924e-02 -4.060517284070642e-03
0.000000000000000e+00 0.000000000000000e+00 0.000000000000000e+00
-1.083805963197504e-02 1.199084722657984e-02 -3.508621374926690e-03
2.522266612753128e-01 2.822395604960853e-01 4.832031825579008e-03
3.680804765351264e-01 3.553574541575777e-01 3.548009482321035e-02
1.161423004164043e-01 2.164802929844546e-01 3.465604630292773e-03
2.988249795679905e-01 3.183575837461652e-01 1.818141096737591e-02
2.147534803758459e-01 2.838217649062242e-01 1.281101445859889e-02
1.792024986573292e-01 2.524052044324708e-01 5.647078698828523e-03
1.161423004164043e-01 2.164802929844546e-01 3.465604630292773e-03
1.474823804909766e-01 1.593819997751912e-01 -2.145212441875088e-02
1.904579349600612e-01 2.177785716892102e-01 -1.374114507695623e-02
1.350355107502462e-01 1.922651874837153e-01 -7.037625259428637e-03
1.680176714059574e-01 1.879143741521152e-01 -1.842865618825940e-02
1.539572498500535e-01 2.213928829691037e-01 -2.042341874361142e-03
1.529293065565118e-02 1.091793772203666e-01 -1.904838309286561e-03
-1.020722170309296e-02 3.136814837289037e-02 1.897730446778212e-04
3.637853653222356e-02 1.102352880045829e-01 -1.797954177106931e-03
-2.533997297442858e-03 6.712765315172531e-02 -1.135696452507773e-03
2.705061435695377e-03 6.999840114637745e-02 4.318424409035515e-04
2.588959869353791e-02 1.125922235987541e-01 -7.734459232189295e-04
1.161423004164043e-01 2.164802929844546e-01 3.465604630292773e-03