<?xml version="1.0" ?> 
<!-- 
# vtk DataFile Version 3.0
-->
<VTKFile type="UnstructuredGrid" version="0.1" compressor="vtkZLibDataCompressor" byte_order="LittleEndian">
  <UnstructuredGrid>
    <FieldData>
      <DataArray type="Float64" Name="TIME" NumberOfTuples="1" format="ascii">
1.000000000000000e+00 
      </DataArray>
    </FieldData>

    <Piece NumberOfPoints="40" NumberOfCells="0" >
      <Points>
        <DataArray type="Float64" NumberOfComponents="3" format="ascii">
9.973931072026406e-01 7.070273512785413e-02 1.000000000000000e+01
8.653443956095521e-01 4.996068197471639e-01 1.045272047163852e+01
8.653443956095521e-01 4.996068197471640e-01 1.045272047163852e+01
8.408972616904897e-01 5.400395384261464e-01 1.050000000000000e+01
8.408972616904891e-01 5.400395384261474e-01 1.050000000000000e+01
7.071067811870000e-01 7.071067811870000e-01 1.071460183660000e+01
7.071067811870000e-01 7.071067811870000e-01 1.071460183660000e+01
4.996068197465660e-01 8.653443956085162e-01 1.097648320156397e+01
4.996068197465658e-01 8.653443956085163e-01 1.097648320156397e+01
4.790802794564825e-01 8.767986476944808e-01 1.100000000000000e+01
4.790802794564811e-01 8.767986476944815e-01 1.100000000000000e+01
0.000000000000000e+00 1.000000000000000e+00 1.150000000000000e+01
1.000000000000000e-01 3.000000000000000e-01 1.250000000000000e+01
5.000000000000000e-01 3.000000000000000e-01 1.270952380952378e+01
1.000000000000000e+00 3.000000000000000e-01 1.297142857142863e+01
1.054545454545364e+00 3.000000000000000e-01 1.300000000000000e+01
1.054545454545370e+00 3.000000000000000e-01 1.300000000000000e+01
1.150000000000000e+00 3.000000000000000e-01 1.305000000000000e+01
5.000000000000000e-01 3.000000000000000e-01 1.270952380952378e+01
1.000000000000000e+00 3.000000000000000e-01 1.297142857142863e+01
1.500000000000000e+00 3.000000000000000e-01 1.323333333333329e+01
2.000000000000000e+00 3.000000000000000e-01 1.349523809523816e+01
1.150000000000000e+00 3.000000000000000e-01 1.305000000000000e+01
1.500000000000000e+00 2.999999999999999e-01 1.323333333333329e+01
9.099418396092163e-01 4.123520859599071e-01 1.535465927548244e+01
8.072131304353310e-01 5.895942770789949e-01 1.555997188189463e+01
7.282911557660177e-01 6.852367478256445e-01 1.568414612346445e+01
7.071067811870000e-01 7.071067811870000e-01 1.571460183660000e+01
8.072131304353318e-01 5.895942770789941e-01 1.555997188189463e+01
7.282911557660177e-01 6.852367478256445e-01 1.568414612346445e+01
9.974188365449632e-01 7.035216465623575e-02 1.499964823725036e+01
9.099418396092159e-01 4.123520859599079e-01 1.535465927548244e+01
2.540680715836868e-01 9.663884211005245e-01 1.624282971409468e+01
0.000000000000000e+00 1.000000000000000e+00 1.650000000000000e+01
7.071067811870000e-01 7.071067811870000e-01 1.571460183660000e+01
5.836739772285680e-01 8.114691146331118e-01 1.587652897058727e+01
5.836739772285678e-01 8.114691146331119e-01 1.587652897058727e+01
4.573928745921857e-01 8.882395524102780e-01 1.602452946266590e+01
4.573928745921856e-01 8.882395524102780e-01 1.602452946266590e+01
2.540680715836858e-01 9.663884211005248e-01 1.624282971409468e+01
        </DataArray>
      </Points>

      <Cells>
        <DataArray type="Int32" Name="connectivity" format="ascii">

        </DataArray>
        <DataArray type="Int32" Name="offsets" format="ascii">

        </DataArray>
        <DataArray type="UInt8" Name="types" format="ascii">

        </DataArray>
      </Cells>

  <PointData>
        <DataArray type="Float64" Name="displacement" NumberOfComponents="3" format="ascii">
8.432794340923477e-04 7.879710188902350e-04 4.491897335689998e-05
5.752936608512949e-04 5.123153853296980e-04 4.876846686308056e-05
5.752936608511838e-04 5.123153853296980e-04 4.876846686308056e-05
4.969241007075631e-04 4.721455575742439e-04 6.450142810265902e-05
4.969241007075631e-04 4.721455575743549e-04 6.450142810088266e-05
2.794193314256121e-04 4.375377847494200e-04 7.611783338568046e-05
2.794193314256121e-04 4.375377847494200e-04 7.611783338568046e-05
2.135280186322808e-04 4.421096279484393e-04 2.713923772290627e-05
2.135280186323918e-04 4.421096279483283e-04 2.713923772290627e-05
2.050503160817563e-04 4.295643851031095e-04 2.515055378360387e-05
2.050503160817563e-04 4.295643851031095e-04 2.515055378360387e-05
0.000000000000000e+00 0.000000000000000e+00 0.000000000000000e+00
0.000000000000000e+00 0.000000000000000e+00 0.000000000000000e+00
2.220446049250313e-16 0.000000000000000e+00 -1.776356839400250e-15
1.110223024625157e-15 -1.387778780781446e-15 -1.776356839400250e-15
1.110223024625157e-15 -1.720845688168993e-15 -3.552713678800501e-15
1.110223024625157e-15 -1.720845688168993e-15 -1.776356839400250e-15
1.332267629550188e-15 -2.442490654175344e-15 -3.552713678800501e-15
2.220446049250313e-16 0.000000000000000e+00 -1.776356839400250e-15
1.110223024625157e-15 -1.387778780781446e-15 -1.776356839400250e-15
1.332267629550188e-15 -4.829470157119431e-15 -3.552713678800501e-15
-6.661338147750939e-16 -6.827871601444713e-15 1.776356839400250e-15
1.332267629550188e-15 -2.442490654175344e-15 -3.552713678800501e-15
1.110223024625157e-15 -4.829470157119431e-15 -3.552713678800501e-15
-8.042704546779023e-03 3.135743559957549e-03 1.428431654623807e-03
-5.014966552785549e-03 5.277526327418625e-03 -4.242598870796144e-05
-4.318052468294309e-03 7.698717822460233e-03 -1.942014886584076e-03
-4.343528931216922e-03 8.532618562625660e-03 -2.636001915526265e-03
-5.014966552785549e-03 5.277526327418403e-03 -4.242598871151415e-05
-4.318052468294309e-03 7.698717822460233e-03 -1.942014886584076e-03
-1.351110374626863e-02 -3.958980530032893e-03 8.034979506637896e-03
-8.042704546779134e-03 3.135743559957493e-03 1.428431654622031e-03
-7.708113791384752e-03 -1.062799839032902e-02 -4.204910881526303e-03
0.000000000000000e+00 0.000000000000000e+00 0.000000000000000e+00
-4.343528931216922e-03 8.532618562625660e-03 -2.636001915526265e-03
-5.577276353240013e-03 7.288988769250326e-03 -5.342961869825302e-03
-5.577276353239791e-03 7.288988769250548e-03 -5.342961869825302e-03
-7.236662649571457e-03 -2.688688441796483e-04 -5.887740830544885e-03
-7.236662649571401e-03 -2.688688441795373e-04 -5.887740830544885e-03
-7.708113791384752e-03 -1.062799839032913e-02 -4.204910881526303e-03
        </DataArray>
        <DataArray type="Float64" Name="projection_direction" NumberOfComponents="3" format="ascii">
1.303911208215824e-04 2.864392729494264e-04 -1.299102565130994e-04
8.183548244733441e-05 1.261401753005487e-04 -2.369751309494461e-05
8.183548244755645e-05 1.261401753004376e-04 -2.369751309139190e-05
-5.342117809736813e-05 8.988442419644027e-05 -4.827651018501911e-05
-5.342117809714608e-05 8.988442419621823e-05 -4.827651018501911e-05
3.688137131141467e-06 1.225018657113885e-05 1.154188923635502e-05
3.688137131141467e-06 1.225018657113885e-05 1.154188923635502e-05
2.174736732696303e-06 -9.904589988130041e-05 -3.042305197098472e-05
2.174736732696303e-06 -9.904589988130041e-05 -3.042305197098472e-05
-2.023855281735321e-05 -1.386374485978781e-04 -3.303573032731322e-05
-2.023855281724218e-05 -1.386374485977671e-04 -3.303573032376050e-05
0.000000000000000e+00 0.000000000000000e+00 0.000000000000000e+00
-8.326672684688674e-17 -1.665334536937735e-16 0.000000000000000e+00
-3.330669073875470e-16 0.000000000000000e+00 0.000000000000000e+00
0.000000000000000e+00 -1.110223024625157e-16 1.776356839400250e-15
4.440892098500626e-16 -1.110223024625157e-16 1.065814103640150e-14
6.661338147750939e-16 -1.110223024625157e-16 3.552713678800501e-15
2.220446049250313e-16 5.551115123125783e-17 5.329070518200751e-15
-3.330669073875470e-16 0.000000000000000e+00 0.000000000000000e+00
4.440892098500626e-16 -1.110223024625157e-16 3.552713678800501e-15
0.000000000000000e+00 5.551115123125783e-17 5.329070518200751e-15
-1.332267629550188e-15 3.885780586188048e-16 -1.776356839400250e-15
2.220446049250313e-16 5.551115123125783e-17 5.329070518200751e-15
2.220446049250313e-16 1.665334536937735e-16 7.105427357601002e-15
1.130404323763790e-02 5.353669836594410e-03 -1.102149134108998e-04
-5.318191013451323e-03 -2.519639940636309e-03 -5.019202587348559e-04
7.289820922312673e-03 8.362022600272523e-03 -7.840412457493784e-04
3.179921848713518e-03 3.123919554680610e-03 -3.207947856580518e-04
-5.318191013451434e-03 -2.519639940636309e-03 -5.019202587313032e-04
7.289820922312673e-03 8.362022600272523e-03 -7.840412457476020e-04
7.555839224176575e-03 3.730372393692019e-03 -1.745493503340967e-03
1.130404323763790e-02 5.353669836594299e-03 -1.102149134126762e-04
-1.975509919657503e-03 -2.124317537916531e-03 -6.704972049682567e-04
6.758492036688060e-18 0.000000000000000e+00 0.000000000000000e+00
3.179921848713518e-03 3.123919554680610e-03 -3.207947856580518e-04
-3.745807680002655e-03 -9.140140694471777e-03 1.136932004511593e-03
-3.745807680002766e-03 -9.140140694471999e-03 1.136932004509816e-03
6.988285142997985e-03 1.519051808568528e-02 -2.867150573209187e-04
6.988285142997985e-03 1.519051808568495e-02 -2.867150573209187e-04
-1.975509919657586e-03 -2.124317537916531e-03 -6.704972049718094e-04
        </DataArray>
        <DataArray type="Int32" Name="uid_0_pair_beam_id" format="ascii">
275
275
275
275
275
275
276
276
276
276
276
276
277
277
277
277
277
277
277
277
278
278
278
278
279
279
279
279
279
279
279
279
280
280
280
280
280
280
280
280
        </DataArray>
        <DataArray type="Int32" Name="uid_1_pair_solid_id" format="ascii">
34
34
35
35
38
38
38
38
39
39
42
42
44
44
48
48
47
47
46
46
49
49
47
47
58
58
65
65
83
83
98
98
51
51
65
65
69
69
93
93
        </DataArray>
      </PointData>

    </Piece>
  </UnstructuredGrid>
</VTKFile>
