<?xml version="1.0" ?> 
<!-- 
# vtk DataFile Version 3.0
-->
<VTKFile type="UnstructuredGrid" version="0.1" compressor="vtkZLibDataCompressor" byte_order="LittleEndian">
  <UnstructuredGrid>
    <FieldData>
      <DataArray type="Float64" Name="TIME" NumberOfTuples="1" format="ascii">
1.000000000000000e+00 
      </DataArray>
    </FieldData>

    <Piece NumberOfPoints="18" NumberOfCells="0" >
      <Points>
        <DataArray type="Float64" NumberOfComponents="3" format="ascii">
1.000000000000000e+00 0.000000000000000e+00 9.929203673210001e+00
7.071067811870000e-01 7.071067811870000e-01 1.071460183660000e+01
9.229551825141720e-01 3.823005540597842e-01 1.032190275490529e+01
7.071067811870000e-01 7.071067811870000e-01 1.071460183660000e+01
0.000000000000000e+00 1.000000000000000e+00 1.150000000000000e+01
3.823005540592515e-01 9.229551825133410e-01 1.110730091829987e+01
1.000000000000000e-01 3.000000000000000e-01 1.250000000000000e+01
1.150000000000000e+00 3.000000000000000e-01 1.305000000000000e+01
6.250000000000000e-01 3.000000000000000e-01 1.277500000000000e+01
1.150000000000000e+00 3.000000000000000e-01 1.305000000000000e+01
2.200000000000000e+00 3.000000000000000e-01 1.360000000000000e+01
1.675000000000000e+00 3.000000000000000e-01 1.332500000000000e+01
1.000000000000000e+00 0.000000000000000e+00 1.492920367320000e+01
7.071067811870000e-01 7.071067811870000e-01 1.571460183660000e+01
9.229551825146231e-01 3.823005540599710e-01 1.532190275490029e+01
7.071067811870000e-01 7.071067811870000e-01 1.571460183660000e+01
0.000000000000000e+00 1.000000000000000e+00 1.650000000000000e+01
3.823005540592515e-01 9.229551825133410e-01 1.610730091829987e+01
        </DataArray>
      </Points>

      <Cells>
        <DataArray type="Int32" Name="connectivity" format="ascii">

        </DataArray>
        <DataArray type="Int32" Name="offsets" format="ascii">

        </DataArray>
        <DataArray type="UInt8" Name="types" format="ascii">

        </DataArray>
      </Cells>

  <PointData>
        <DataArray type="Float64" Name="displacement" NumberOfComponents="3" format="ascii">
6.702316166626865e-04 7.211488195690083e-04 1.190697604407376e-04
2.794193314256121e-04 4.375377847494200e-04 7.611783338568046e-05
7.906499391640009e-04 6.448729220884242e-04 2.377441440160055e-06
2.794193314256121e-04 4.375377847494200e-04 7.611783338568046e-05
0.000000000000000e+00 0.000000000000000e+00 0.000000000000000e+00
1.630270793021027e-04 3.544151927954431e-04 1.905481701847123e-05
0.000000000000000e+00 0.000000000000000e+00 0.000000000000000e+00
1.332267629550188e-15 -2.442490654175344e-15 -3.552713678800501e-15
4.440892098500626e-16 -1.665334536937735e-16 -1.776356839400250e-15
1.332267629550188e-15 -2.442490654175344e-15 -3.552713678800501e-15
-1.776356839400250e-15 -7.216449660063518e-15 3.552713678800501e-15
4.440892098500626e-16 -5.717648576819556e-15 -1.776356839400250e-15
-1.389794469956929e-02 -7.109106508216274e-03 1.120466719575752e-02
-4.343528931216922e-03 8.532618562625660e-03 -2.636001915526265e-03
-8.632349823113783e-03 2.824674715993070e-03 1.656787166826490e-03
-4.343528931216922e-03 8.532618562625660e-03 -2.636001915526265e-03
0.000000000000000e+00 0.000000000000000e+00 0.000000000000000e+00
-7.870539428361523e-03 -5.041401463603545e-03 -5.544806108296996e-03
        </DataArray>
        <DataArray type="Float64" Name="lambda" NumberOfComponents="3" format="ascii">
6.466330674052785e-04 4.106545401637785e-04 -1.118520034481969e-04
4.201866518637990e-04 5.102336776537764e-04 7.808463035003064e-05
-2.165130320763365e-04 -1.543354799901752e-04 2.665493528679385e-05
4.201866518637990e-04 5.102336776537764e-04 7.808463035003064e-05
3.142015605128504e-04 5.867034644594516e-04 2.994116170117245e-04
-1.898685453467751e-04 -3.250632068779692e-04 -8.080991830288345e-05
4.253290675030609e-15 5.453816268789248e-15 3.863634368027805e-14
5.959609861702256e-15 -2.103003922436969e-15 -1.542114976603309e-13
1.029021937507411e-16 8.112122940683422e-16 -8.199246798059048e-14
5.959609861702256e-15 -2.103003922436969e-15 -1.542114976603309e-13
-2.251092663245608e-14 2.813865829057010e-15 -1.350655597947365e-13
1.940597123488449e-15 -9.702985617442244e-16 -7.762388493953795e-14
-4.058482042282106e-04 1.283914153995632e-02 -1.723649348322914e-03
5.142045094659743e-04 2.059389048922086e-02 1.853448842042129e-03
9.019509782409943e-04 -5.130612301303255e-03 -6.475684883350637e-04
5.142045094659743e-04 2.059389048922086e-02 1.853448842042129e-03
5.585393883371699e-02 1.629530967897191e-01 1.492348097490703e-02
2.803009465438326e-03 -8.509564674855762e-03 -1.825611254326148e-03
        </DataArray>
        <DataArray type="Int32" Name="uid_0_pair_beam_id" format="ascii">
275
275
275
276
276
276
277
277
277
278
278
278
279
279
279
280
280
280
        </DataArray>
        <DataArray type="Int32" Name="uid_1_pair_solid_id" format="ascii">
34
34
34
34
34
34
49
49
49
49
49
49
51
51
51
51
51
51
        </DataArray>
      </PointData>

    </Piece>
  </UnstructuredGrid>
</VTKFile>
