<?xml version="1.0" ?> 
<!-- 
# vtk DataFile Version 3.0
-->
<VTKFile type="UnstructuredGrid" version="0.1" compressor="vtkZLibDataCompressor" byte_order="LittleEndian">
  <UnstructuredGrid>
    <FieldData>
      <DataArray type="Float64" Name="TIME" NumberOfTuples="1" format="ascii">
3.000000000000000e+00 
      </DataArray>
      <DataArray type="Float64" Name="sum_coupling_force_beam" NumberOfTuples="1" NumberOfComponents="3" format="ascii">
1.042099437828385e-01 5.496450028635459e-02 4.059808747713251e-03 
      </DataArray>
      <DataArray type="Float64" Name="sum_coupling_force_solid" NumberOfTuples="1" NumberOfComponents="3" format="ascii">
-1.042099437828386e-01 -5.496450028635461e-02 -4.059808747713252e-03 
      </DataArray>
      <DataArray type="Float64" Name="sum_coupling_moment_beam" NumberOfTuples="1" NumberOfComponents="3" format="ascii">
-5.448105137068270e-02 1.320920786670829e-01 1.277092911898156e-03 
      </DataArray>
      <DataArray type="Float64" Name="sum_coupling_moment_solid" NumberOfTuples="1" NumberOfComponents="3" format="ascii">
5.706547624605577e-01 -1.154303444625614e+00 4.791932029385644e-02 
      </DataArray>
    </FieldData>

    <Piece NumberOfPoints="334" NumberOfCells="0" >
      <Points>
        <DataArray type="Float64" NumberOfComponents="3" format="ascii">
1.245596198500000e+00 0.000000000000000e+00 1.799912997290000e+01
1.243247958050000e+00 3.000000000000000e-01 1.799976586030000e+01
1.500000000000000e+00 3.000000000000000e-01 1.850000000000000e+01
1.707207993010000e+00 3.000000000000000e-01 1.799996097670000e+01
1.000000000000000e+00 0.000000000000000e+00 1.850000000000000e+01
7.544038015000000e-01 3.000000000000000e-01 1.799912997290000e+01
5.000000000000000e-01 3.000000000000000e-01 1.850000000000000e+01
2.924006335830000e-01 3.000000000000000e-01 1.799985499550000e+01
2.927920069920000e-01 0.000000000000000e+00 1.799996097670000e+01
1.707599366420000e+00 0.000000000000000e+00 1.799985499550000e+01
1.500000000000000e+00 0.000000000000000e+00 1.850000000000000e+01
2.000000000000000e+00 0.000000000000000e+00 1.850000000000000e+01
2.000000000000000e+00 3.000000000000000e-01 1.850000000000000e+01
5.000000000000000e-01 3.000000000000000e-01 1.750000000000000e+01
9.634159207340000e-01 1.676975637670000e-01 1.778064918520000e+01
1.000000000000000e+00 3.000000000000000e-01 1.750000000000000e+01
5.000000000000000e-01 0.000000000000000e+00 1.750000000000000e+01
5.000000000000000e-01 0.000000000000000e+00 1.850000000000000e+01
1.000000000000000e+00 0.000000000000000e+00 1.750000000000000e+01
1.500000000000000e+00 0.000000000000000e+00 1.750000000000000e+01
7.567520419520000e-01 0.000000000000000e+00 1.799976586030000e+01
0.000000000000000e+00 0.000000000000000e+00 1.750000000000000e+01
1.500000000000000e+00 3.000000000000000e-01 1.750000000000000e+01
1.000000000000000e+00 3.000000000000000e-01 1.850000000000000e+01
2.000000000000000e+00 3.000000000000000e-01 1.750000000000000e+01
0.000000000000000e+00 3.000000000000000e-01 1.750000000000000e+01
0.000000000000000e+00 0.000000000000000e+00 1.850000000000000e+01
0.000000000000000e+00 0.000000000000000e+00 1.800000000000000e+01
0.000000000000000e+00 3.000000000000000e-01 1.800000000000000e+01
0.000000000000000e+00 3.000000000000000e-01 1.850000000000000e+01
2.000000000000000e+00 0.000000000000000e+00 1.800000000000000e+01
2.000000000000000e+00 0.000000000000000e+00 1.750000000000000e+01
2.000000000000000e+00 3.000000000000000e-01 1.800000000000000e+01
0.000000000000000e+00 1.000000000000000e+00 2.150000000000000e+01
0.000000000000000e+00 1.000000000000000e+00 2.100000000000000e+01
5.000000000000000e-01 8.660254037839999e-01 2.150000000000000e+01
0.000000000000000e+00 7.000000000000000e-01 2.150000000000000e+01
0.000000000000000e+00 1.000000000000000e+00 2.125000000000000e+01
2.588190451030000e-01 9.659258262890000e-01 2.125000000000000e+01
2.588190451030000e-01 9.659258262890000e-01 2.150000000000000e+01
0.000000000000000e+00 8.500000000000000e-01 2.150000000000000e+01
0.000000000000000e+00 8.500000000000000e-01 2.125000000000000e+01
2.500000000000000e-01 7.830127018920000e-01 2.150000000000000e+01
9.504792740630000e-01 3.107879495360000e-01 2.074983937880000e+01
6.426868539140000e-01 2.774051329860000e-01 2.075000000000000e+01
7.000000000000000e-01 0.000000000000000e+00 2.100000000000000e+01
7.000000000000000e-01 0.000000000000000e+00 2.150000000000000e+01
7.965830639880001e-01 2.940965412610000e-01 2.074991968940000e+01
6.855219900700000e-01 1.416319212970000e-01 2.087500000000000e+01
8.252396370310000e-01 1.553939747680000e-01 2.087491968940000e+01
8.252396370310000e-01 1.553939747680000e-01 2.112491968940000e+01
6.855219900700000e-01 1.416319212970000e-01 2.112500000000000e+01
7.000000000000000e-01 0.000000000000000e+00 2.125000000000000e+01
3.255782127380000e-01 7.657445073130000e-01 2.116083908080000e+01
2.795446833180000e-01 6.417591215000000e-01 2.075000000000000e+01
4.329390516020000e-01 9.014231956180000e-01 2.074976147080000e+01
7.283520826140000e-01 6.852030675290000e-01 2.101496824100000e+01
3.025614480280000e-01 7.037518144060000e-01 2.095541954040000e+01
3.562418674600000e-01 7.715911585590000e-01 2.074988073540000e+01
3.792586321700000e-01 8.335838514650000e-01 2.095530027580000e+01
5.269651476760000e-01 7.254737874210000e-01 2.108790366090000e+01
5.039483829660000e-01 6.634810945150000e-01 2.088248412050000e+01
5.906242972910000e-01 8.069466769560000e-01 2.088236485590000e+01
4.949747468310000e-01 4.949747468310000e-01 2.150000000000000e+01
6.116634147220000e-01 5.900889071800000e-01 2.125748412050000e+01
4.102764797840000e-01 6.303596270720000e-01 2.133041954040000e+01
3.941528892210000e-01 5.784837939980000e-01 2.112500000000000e+01
4.974873734150000e-01 6.805000753080001e-01 2.150000000000000e+01
4.127891063690000e-01 8.158849555490000e-01 2.133041954040000e+01
1.627891063690000e-01 7.328722536560000e-01 2.133041954040000e+01
2.678784026560000e-01 6.467156727580000e-01 2.150000000000000e+01
8.660254037839999e-01 5.000000000000000e-01 2.150000000000000e+01
7.543561288490001e-01 3.887025664930000e-01 2.112500000000000e+01
7.830127018920000e-01 2.500000000000000e-01 2.150000000000000e+01
9.131662560400000e-01 4.075872775610000e-01 2.112491968940000e+01
7.000000000000000e-01 0.000000000000000e+00 2.050000000000000e+01
1.000000000000000e+00 0.000000000000000e+00 2.050000000000000e+01
8.500000000000000e-01 0.000000000000000e+00 2.050000000000000e+01
9.875422203790000e-01 1.573542594550000e-01 2.062491968940000e+01
8.252396370310000e-01 1.553939747680000e-01 2.062491968940000e+01
7.000000000000000e-01 0.000000000000000e+00 2.075000000000000e+01
8.500000000000000e-01 0.000000000000000e+00 2.075000000000000e+01
8.660254037839999e-01 5.000000000000000e-01 2.000000000000000e+01
7.282793318550000e-01 6.852803913680000e-01 2.048410264420000e+01
7.543561288490001e-01 3.887025664930000e-01 2.037500000000000e+01
8.025173539410000e-01 5.966287762280000e-01 2.024205132210000e+01
6.854830928840000e-01 4.813427621770000e-01 2.061705132210000e+01
9.131662560400000e-01 4.075872775610000e-01 2.037491968940000e+01
8.600109077700000e-01 5.102756495440000e-01 2.061697101150000e+01
5.000000000000000e-01 8.660254037839999e-01 2.000000000000000e+01
4.949747468310000e-01 4.949747468310000e-01 2.000000000000000e+01
5.039120075870001e-01 6.635197564340000e-01 2.061705132210000e+01
3.897723416590000e-01 7.538922626420000e-01 2.037500000000000e+01
6.207533480730000e-01 7.840059188910000e-01 2.024205132210000e+01
6.116270393430000e-01 5.901275690990000e-01 2.024205132210000e+01
3.941528892210000e-01 5.784837939980000e-01 2.037500000000000e+01
4.974873734150000e-01 6.805000753080001e-01 2.000000000000000e+01
6.805000753080001e-01 4.974873734150000e-01 2.150000000000000e+01
8.025490242590000e-01 5.965861745470000e-01 2.125748412050000e+01
6.207949653770000e-01 7.839729657090000e-01 2.125748412050000e+01
7.071067811870000e-01 7.071067811870000e-01 2.150000000000000e+01
6.805000753080001e-01 4.974873734150000e-01 2.000000000000000e+01
7.071067811870000e-01 7.071067811870000e-01 2.000000000000000e+01
5.791395459380000e-01 3.931887413580000e-01 2.037500000000000e+01
6.855194682640000e-01 4.813041002570000e-01 2.088248412050000e+01
5.791395459380000e-01 3.931887413580000e-01 2.112500000000000e+01
1.427736231770000e-01 6.852851176880000e-01 2.112500000000000e+01
1.397723416590000e-01 8.208795607500000e-01 2.087500000000000e+01
1.627891063690000e-01 8.828722536560000e-01 2.108041954040000e+01
7.283157082610000e-01 6.852417304140000e-01 2.074953544260000e+01
5.905814604920000e-01 8.069780285250000e-01 2.061693205750000e+01
7.000000000000000e-01 0.000000000000000e+00 2.000000000000000e+01
8.500000000000000e-01 0.000000000000000e+00 2.025000000000000e+01
8.252396370310000e-01 1.553939747680000e-01 2.037491968940000e+01
7.000000000000000e-01 0.000000000000000e+00 2.025000000000000e+01
6.855219900700000e-01 1.416319212970000e-01 2.037500000000000e+01
7.830127018920000e-01 2.500000000000000e-01 2.000000000000000e+01
6.855219900700000e-01 1.416319212970000e-01 2.062500000000000e+01
4.668051728700000e-01 8.843601814770000e-01 2.112488073540000e+01
0.000000000000000e+00 7.000000000000000e-01 2.050000000000000e+01
0.000000000000000e+00 7.000000000000000e-01 2.100000000000000e+01
0.000000000000000e+00 8.500000000000000e-01 2.075000000000000e+01
1.427736231770000e-01 6.852851176880000e-01 2.062500000000000e+01
1.427736231770000e-01 6.852851176880000e-01 2.087500000000000e+01
0.000000000000000e+00 8.500000000000000e-01 2.100000000000000e+01
0.000000000000000e+00 7.000000000000000e-01 2.075000000000000e+01
0.000000000000000e+00 7.000000000000000e-01 2.125000000000000e+01
0.000000000000000e+00 7.000000000000000e-01 2.000000000000000e+01
0.000000000000000e+00 1.000000000000000e+00 2.050000000000000e+01
0.000000000000000e+00 8.500000000000000e-01 2.025000000000000e+01
1.397723416590000e-01 8.208795607500000e-01 2.062500000000000e+01
[...]
  <PointData>
        <DataArray type="Float64" Name="displacement" NumberOfComponents="3" format="ascii">
3.229138484422649e-02 1.878613509986797e-01 3.799181859342218e-02
-3.974744494326941e-02 1.763069938136256e-01 1.502484168497488e-02
-6.127006013045356e-02 2.867912904220251e-01 1.449234387132242e-02
-6.082197790561149e-02 3.034081110891790e-01 1.440743576922086e-02
2.203686125322856e-02 1.587481723270611e-01 2.766720136853462e-02
-2.017975214327706e-02 7.580837722996447e-02 8.532711110862998e-03
-2.373868963192617e-02 4.758940952492297e-02 5.752017586196118e-03
-6.637058448114335e-03 1.238117384085480e-02 -4.282938842482439e-04
1.541178533944658e-02 1.558982430716333e-02 7.945930117978946e-03
2.157582552871854e-02 3.189103524247031e-01 4.250757005651110e-02
1.949825695546664e-02 3.040296328372367e-01 3.911233742007567e-02
-1.573383512602784e-03 4.700482358568178e-01 3.648850083528432e-02
-9.207500863562741e-02 4.599100892675075e-01 3.511204179635167e-03
-4.753642114906357e-03 1.138784981100207e-02 1.853573817454371e-03
3.579451797809365e-04 1.040656439504121e-01 1.983340196402780e-02
-2.008362871729537e-02 9.413726350981330e-02 1.348112947120043e-02
2.507043023022841e-02 1.564621511592381e-02 1.631420246239026e-02
1.453301559760886e-02 5.313988930858015e-02 1.176066490815104e-02
3.499342279951326e-02 1.012853946649322e-01 3.204360810953345e-02
3.417753273904551e-02 2.151271011290278e-01 4.186856447724632e-02
2.845808628160089e-02 8.190296737646464e-02 2.279607774380962e-02
0.000000000000000e+00 0.000000000000000e+00 0.000000000000000e+00
-4.149359267873853e-02 2.064338867039595e-01 1.755741695982437e-02
-4.208383438179621e-02 1.473696483805003e-01 1.289187828382271e-02
-6.421554788869351e-02 3.371628534550177e-01 1.291670182945854e-02
0.000000000000000e+00 0.000000000000000e+00 0.000000000000000e+00
0.000000000000000e+00 0.000000000000000e+00 0.000000000000000e+00
0.000000000000000e+00 0.000000000000000e+00 0.000000000000000e+00
0.000000000000000e+00 0.000000000000000e+00 0.000000000000000e+00
0.000000000000000e+00 0.000000000000000e+00 0.000000000000000e+00
1.085657002746805e-02 4.026574121243071e-01 4.074765301458530e-02
1.748807028211866e-02 3.514184846234068e-01 4.179277454737022e-02
-7.475148873833526e-02 3.890838887692550e-01 8.155138990047564e-03
0.000000000000000e+00 0.000000000000000e+00 0.000000000000000e+00
0.000000000000000e+00 0.000000000000000e+00 0.000000000000000e+00
-1.020722170309293e-02 3.136814837289034e-02 1.897730446782005e-04
0.000000000000000e+00 0.000000000000000e+00 0.000000000000000e+00
0.000000000000000e+00 0.000000000000000e+00 0.000000000000000e+00
-8.952860835591827e-03 1.309892166682819e-02 7.490438614026027e-05
-5.360103203102003e-03 8.218505021587370e-03 1.612374984091719e-03
0.000000000000000e+00 0.000000000000000e+00 0.000000000000000e+00
0.000000000000000e+00 0.000000000000000e+00 0.000000000000000e+00
3.903158000771596e-03 5.018337557902076e-03 -5.059962763450017e-03
1.161423004164043e-01 2.164802929844546e-01 3.465604630291224e-03
1.451653656057350e-01 1.209120112010531e-01 -3.132768222291665e-02
2.042981746499683e-01 1.317518772367652e-01 -4.724312795499885e-02
1.573587469252458e-01 8.895664018887495e-02 -4.977749036595545e-02
1.307315885048059e-01 1.679384497756076e-01 -1.498710700680467e-02
1.751259511487950e-01 1.311970536541111e-01 -3.868253069641461e-02
1.632657632360769e-01 1.724146718051758e-01 -2.182591413155282e-02
1.422694351322057e-01 1.479109653406758e-01 -2.400615024718927e-02
1.524558121485770e-01 1.108733382306448e-01 -3.864565894842685e-02
1.790303279400552e-01 1.099764722071893e-01 -4.837581787400947e-02
7.188002571150368e-03 2.175572796304126e-02 -6.974455089694504e-03
3.338069332815207e-02 2.354128892561532e-02 -1.037926219676366e-02
-1.263097452001768e-02 4.496809904880621e-02 -5.859092168832808e-03
1.529293065565122e-02 1.091793772203666e-01 -1.904838309287865e-03
1.871986304118749e-02 2.355221751819287e-02 -8.926295510956635e-03
1.131678377209096e-02 3.234722644620213e-02 -7.812120989720396e-03
-5.767895396342081e-04 3.278517977780687e-02 -5.828251726465374e-03
1.267554651694510e-02 5.816400198968116e-02 -7.663997513066795e-03
2.920090303965537e-02 6.295336681451640e-02 -1.128524504185143e-02
-1.322927339127854e-03 7.868919967821995e-02 -4.936575466555557e-03
4.523233254425042e-02 3.433633873140930e-02 -2.261909488868081e-02
3.240871090606982e-02 6.967675516936188e-02 -1.106856655509634e-02
2.491965764883331e-02 2.946609573374326e-02 -1.368283771040495e-02
4.008500589127449e-02 3.646671126648549e-02 -1.587226509752225e-02
1.337651199402180e-02 3.230428571373978e-02 -9.711309006821199e-03
-1.108697353644821e-03 2.729734513669413e-02 -4.635616618580803e-03
6.108306239773095e-03 4.564729915498756e-03 -5.040913470063333e-03
1.616342864556674e-02 6.830231811695691e-03 -1.259490784052304e-02
3.637853653222360e-02 1.102352880045829e-01 -1.797954177108623e-03
8.112446176208982e-02 1.191304341623729e-01 -1.505945250069716e-02
9.383732557014221e-02 9.978407464631586e-02 -2.347746845804853e-02
7.004765413225070e-02 1.606320236533879e-01 -6.176997372892769e-04
2.769017014474408e-01 1.769412208409885e-01 -4.664985090437739e-02
2.522266612753127e-01 2.822395604960853e-01 4.832031825578181e-03
2.642242306202229e-01 2.298201160410005e-01 -2.072407507580258e-02
1.792024986573292e-01 2.524052044324708e-01 5.647078698827938e-03
1.909663952732785e-01 1.969983351271748e-01 -1.895961242456213e-02
2.353343767914653e-01 1.543215079994618e-01 -4.693425080385791e-02
2.258200836887816e-01 2.013745302029484e-01 -2.637587197107626e-02
1.039756529661582e-01 2.377953896426434e-01 8.305967225148758e-03
2.375951504604137e-02 1.385493546579770e-01 -6.168678556212879e-03
1.357048697346422e-01 1.746747067524362e-01 -1.369707975219788e-02
5.533539329989692e-02 1.834371294386644e-01 -1.545640236718443e-03
8.533646784192377e-02 1.301141353402021e-01 -1.478937348986852e-02
1.177024358588667e-01 2.325418803578322e-01 1.121845751010366e-03
6.604961306017497e-02 1.842158596306939e-01 -3.796708241699779e-03
-1.079174947002542e-02 6.346956540538239e-02 -6.355418767775239e-03
1.211809301239843e-01 8.521493682546839e-02 -9.736752686049037e-03
3.667784767436093e-02 6.865312563929291e-02 -1.140689429241809e-02
1.870776410985747e-02 3.948369102249097e-02 -7.696425037071374e-03
3.997271473935902e-03 1.036595392051406e-01 -5.887197505464442e-03
6.837513999481454e-02 1.122187871691837e-01 -1.021393080914613e-02
6.839324647068695e-02 4.848200753941018e-02 -1.226343210145651e-02
4.327857903652534e-02 7.135776898023033e-02 -5.617966176407191e-03
4.161762665019360e-02 6.971694203267936e-02 -1.380351947941064e-02
2.588959869353794e-02 1.125922235987541e-01 -7.734459232180795e-04
-2.533997297442911e-03 6.712765315172532e-02 -1.135696452508099e-03
2.705061435695397e-03 6.999840114637747e-02 4.318424409053256e-04
1.153294243389544e-01 1.580182403964125e-01 -5.653092020066374e-03
2.426192362771430e-02 1.463509879608841e-01 -2.782011921781010e-03
1.439571686482553e-01 1.108748273337371e-01 -2.518873807705219e-02
7.088839927080572e-02 1.151122353365942e-01 -1.436008586481910e-02
8.574564658081675e-02 7.614637786798301e-02 -2.587045950761824e-02
1.108943152756553e-02 6.738510010994282e-03 -5.111127836389949e-03
3.089814649426276e-03 4.098490666586884e-03 -3.308519934488487e-03
-2.066738111881069e-03 6.408263398913549e-03 -2.277732253144408e-03
2.135812506680582e-02 1.273073451166931e-01 -4.541295226407734e-03
-1.662210890213291e-03 8.646864824977785e-02 -6.430044051515654e-03
3.854567727293968e-01 2.356170513147948e-01 -3.830801800535955e-02
3.116260117609287e-01 2.620858050304289e-01 -1.449503420305210e-02
2.288716191103803e-01 2.233485082175437e-01 -1.561029412535907e-02
3.273463533692500e-01 2.035822324815505e-01 -4.417911532641352e-02
2.462362427139967e-01 1.715276789569775e-01 -3.989001248431473e-02
2.472680187448087e-01 2.381960438803151e-01 -6.741117705580872e-03
2.058938369602943e-01 1.512945367857586e-01 -3.960704137795526e-02
-1.150932549082300e-02 4.251253939552507e-02 -3.069717924712783e-03
0.000000000000000e+00 0.000000000000000e+00 0.000000000000000e+00
0.000000000000000e+00 0.000000000000000e+00 0.000000000000000e+00
0.000000000000000e+00 0.000000000000000e+00 0.000000000000000e+00
1.508576595111770e-02 7.350188708864495e-03 -4.989736322459044e-03
1.397279757590806e-02 8.113289620645295e-03 -5.456676452869007e-03
0.000000000000000e+00 0.000000000000000e+00 0.000000000000000e+00
0.000000000000000e+00 0.000000000000000e+00 0.000000000000000e+00
0.000000000000000e+00 0.000000000000000e+00 0.000000000000000e+00
0.000000000000000e+00 0.000000000000000e+00 0.000000000000000e+00
0.000000000000000e+00 0.000000000000000e+00 0.000000000000000e+00
0.000000000000000e+00 0.000000000000000e+00 0.000000000000000e+00
3.432101768759388e-03 3.577810196556167e-03 -3.565980594884206e-03
1.694409822545648e-02 7.551308430187574e-03 -3.845328045694636e-03
1.137725755505254e-02 1.199551052418340e-02 -2.342584086511389e-03
-1.147640086270413e-02 1.561901311790643e-02 -4.568101929511739e-03
1.474823804909765e-01 1.593819997751912e-01 -2.145212441875090e-02
8.627380725198257e-02 1.428270279701769e-01 -7.681677128455003e-03
1.523998609747015e-01 1.238717701229862e-01 -3.608124572416557e-02
1.350355107502462e-01 1.922651874837153e-01 -7.037625259428111e-03
3.680804765351264e-01 3.553574541575777e-01 3.548009482321027e-02
2.988249795679904e-01 3.183575837461652e-01 1.818141096737757e-02
3.724315788998291e-01 2.981717882087006e-01 -3.297119165925094e-03
2.147534803758458e-01 2.838217649062242e-01 1.281101445860053e-02
1.904579349600613e-01 2.177785716892102e-01 -1.374114507695720e-02
1.737691768804832e-01 1.484658608397907e-01 -3.405365521087526e-02
1.539572498500535e-01 2.213928829691036e-01 -2.042341874361649e-03
1.680176714059574e-01 1.879143741521152e-01 -1.842865618825968e-02
0.000000000000000e+00 0.000000000000000e+00 0.000000000000000e+00
0.000000000000000e+00 0.000000000000000e+00 0.000000000000000e+00
-1.092206241221894e-02 1.363000183413044e-02 -4.907754870488907e-03
0.000000000000000e+00 0.000000000000000e+00 0.000000000000000e+00
7.805433299979835e-02 7.156624265741762e-02 -2.017391994673856e-02
4.349353283363103e-02 2.051042334251849e-02 -7.993545545629073e-04
0.000000000000000e+00 0.000000000000000e+00 0.000000000000000e+00
0.000000000000000e+00 0.000000000000000e+00 0.000000000000000e+00
5.566384547259085e-02 1.630993343179394e-01 -4.252281542751677e-04
1.971226996837702e-01 1.745318158809328e-01 -3.063053159220418e-02
-1.083805963197505e-02 1.199084722657979e-02 -3.508621374927446e-03
-1.054297053321504e-02 1.176063433145927e-02 -4.060517284070232e-03
0.000000000000000e+00 0.000000000000000e+00 0.000000000000000e+00
2.171591896657970e-01 2.492822689833501e-01 -5.437115343819093e-03
2.480174682087342e-01 1.749543373695244e-01 -2.392304643817749e-02
-1.120226206532182e-02 5.460279490688930e-02 -6.757602387684545e-03
9.299628759995758e-02 6.855836250076403e-02 -3.266034536579982e-02
2.383596638142143e-01 3.105353652535268e-01 2.367693535126306e-02
-4.540917379140278e-03 4.833098776672711e-01 9.208675641283318e-02
-1.641647285127268e-01 4.310948981098280e-01 5.031827322298627e-02
-2.771242465251761e-01 6.386160138778395e-01 4.303042412671664e-02
-2.605178933242051e-01 6.957949621848533e-01 4.657352325781491e-02
-8.486089577173948e-02 4.558325612580243e-01 7.039172032062053e-02
-2.163194411865090e-01 5.303614698552943e-01 4.927242026487785e-02
-1.316248573606852e-01 5.608984689226668e-01 7.075074257553784e-02
-1.259226690142446e-01 5.897669617317114e-01 7.626327710741804e-02
-2.101712945862294e-01 5.598228965173672e-01 5.056734133915760e-02
-2.668294118656654e-01 6.737087703963751e-01 4.679473865095074e-02
-1.167494907109697e-02 3.832235383198594e-01 6.360977160653762e-02
-8.920855886162633e-02 4.114263682993988e-01 6.075260494189178e-02
-1.367827123681175e-01 5.093932444476770e-01 6.188090268685870e-02
-7.833991692043494e-03 4.393674746029845e-01 7.861484804926612e-02
-8.617976825937801e-02 1.859195370045130e-01 2.649087390103022e-02
-8.571527673479215e-02 9.747289831411395e-02 2.258164571887655e-02
-3.090780089154338e-02 3.801468992274989e-02 5.942647908469809e-03
3.074839058110855e-02 4.544564700420170e-02 1.538662382156975e-02
-8.897989565552139e-02 1.452962742881467e-01 2.286793852622510e-02
-5.552012524196073e-02 6.647484236648393e-02 1.354517768184499e-02
-5.553647084621394e-02 9.837026955774848e-02 1.501279442930722e-02
-6.533309080081521e-03 1.070618836907646e-01 2.496007594705440e-02
-1.066973055732818e-02 7.073163269982932e-02 1.584752587872210e-02
-8.288279823300119e-05 3.913812418663072e-02 1.082997944189326e-02
-8.402935128516646e-02 7.631966702647057e-01 1.084124250292821e-01
-9.543996996695051e-02 7.123611425183372e-01 9.345442052277642e-02
-4.091925966559958e-02 6.213218198539280e-01 1.028785861400052e-01
-1.721933471126421e-01 7.290792115786942e-01 7.733679701398306e-02
-4.527904915102926e-02 5.935251791817124e-01 9.445472458341586e-02
-8.862882950404309e-02 7.433146442327307e-01 1.026520823874758e-01
-1.784369488064314e-01 7.075614504418583e-01 7.381681336182658e-02
-2.126878282754122e-01 1.056621602681797e+00 9.673248764578074e-02
-4.000812611932366e-01 9.898851336738534e-01 1.892933832796907e-02
-2.447617309921088e-01 8.492181304397213e-01 6.506344569009903e-02
-3.356172928331637e-01 8.150377913998081e-01 3.278213975510576e-02
-3.060455931849163e-01 1.021200101888702e+00 5.728735878147592e-02
-2.351878676747106e-01 8.682416404058386e-01 7.106331466839175e-02
-3.260032388937275e-01 8.345802991630458e-01 3.657358498339861e-02
-1.436636847711974e-01 9.048594202734476e-01 1.062502816403111e-01
-1.522079124864192e-01 8.867301860133969e-01 9.834196602178624e-02
-1.281188909060230e-02 5.312303437148073e-02 1.013775996391964e-02
-3.420405749210704e-02 2.782204679167107e-01 5.602229151084808e-02
-7.064356877906396e-02 2.467477351871880e-01 4.023162919457144e-02
-2.303279002600354e-02 1.511889263820175e-01 3.349854522462997e-02
-5.268947097130001e-02 2.626546538257843e-01 4.880138032908463e-02
-3.654796218738966e-02 1.395245645041850e-01 2.680338599453835e-02
-4.696289920429644e-02 1.150860333255357e-01 1.793409526770946e-02
-6.139605007409161e-02 2.306454134531895e-01 4.058676426999443e-02
-7.954140833934818e-02 2.176682416730306e-01 3.352108531141034e-02
6.659196940683111e-02 7.400801680371681e-02 4.817003106584528e-02
4.449680811284291e-03 1.273441935179143e-01 3.515305692937994e-02
2.750667219548733e-02 6.201144885448166e-02 2.973706230507699e-02
8.469192664333004e-03 5.402186960382171e-02 1.860444408271736e-02
-2.613608929395331e-02 4.893409828987833e-02 6.186518982347208e-03
2.729250421916714e-02 1.174766496379195e-01 2.127351364063925e-02
-2.706791147022177e-02 1.575134158205108e-01 3.026777996047584e-02
-2.875453144780414e-02 1.055286193902631e-01 2.228758884613281e-02
3.319471080593738e-02 8.007788608154191e-02 1.821655456429115e-02
4.317218206412226e-02 6.291747812235922e-02 2.954838595111917e-02
6.936081432284842e-02 2.873311942388563e-01 8.955255490699526e-02
7.694901984322293e-02 1.686207402848093e-01 7.002252757027690e-02
3.308545108113111e-02 1.657429874570062e-01 5.283765769678449e-02
1.650494918302611e-02 2.828586012760589e-01 7.128319241384537e-02
2.227633541096050e-02 1.524626694715592e-01 4.843495354059643e-02
9.091077261264799e-03 5.582324382327053e-01 1.144686576707307e-01
-3.785442145399080e-04 5.226694322970314e-01 1.033085789156331e-01
-2.090162083432493e-02 3.761583652169866e-01 7.411724185852171e-02
-1.307085455842189e-02 4.135162949334510e-01 8.529189050855895e-02
4.403190489751874e-02 4.183191158120433e-01 1.046710586486733e-01
3.130442753177354e-02 3.825045848472535e-01 9.067411580108758e-02
4.099957738401803e-02 2.189919719821209e-01 5.533527822836066e-02
5.160149662321219e-02 2.547713873782796e-01 7.256506801551420e-02
5.036794686756491e-03 2.489330535078656e-01 5.771016884109401e-02
5.519832453322610e-02 1.418000167041393e-01 5.086982853542035e-02
0.000000000000000e+00 0.000000000000000e+00 0.000000000000000e+00
3.667503814737233e-02 1.865913361163852e-02 2.484229252233619e-02
1.800953504407245e-02 1.395974624411380e-02 8.311248915676014e-03
3.384857543078389e-03 8.377107617910559e-03 4.361405957945661e-03
-1.557154338163028e-01 5.020753125403107e-01 5.501697912306326e-02
-7.301590078081631e-02 5.297830106019907e-01 8.467698849290969e-02
-1.628049818858670e-01 4.675793096055076e-01 5.108712207725341e-02
-8.125352281371852e-02 4.943972285331319e-01 7.710533969980368e-02
-1.223765814096794e-01 6.271217242560069e-01 8.117781723585792e-02
-2.079656500086301e-01 5.972161475324866e-01 5.161598725558960e-02
-1.753912182484713e-01 3.319013145737869e-01 3.787872171483850e-02
1.891576860978035e-02 2.996115245565723e-01 5.974657147039574e-02
-9.315151012249621e-02 3.565879394235595e-01 5.085321360852315e-02
-5.440395285830031e-02 2.775966427375077e-01 4.659326844816468e-02
3.364744208074791e-02 1.734487830236355e-01 3.739602809213749e-02
1.371564417071138e-02 2.399809818229681e-01 4.268317943707491e-02
-5.648947591589668e-02 2.195119127512893e-01 3.651361115338680e-02
-2.517767673223912e-01 7.880372202270297e-01 5.721169214482302e-02
-3.728241150444365e-02 6.580717616953649e-01 1.112776538291362e-01
-1.703979844871127e-01 7.750269748435497e-01 8.283735354360038e-02
-1.184484971353284e-01 6.727900842043214e-01 8.785524162346876e-02
-2.574667504194811e-01 7.431701125004341e-01 5.115267637588480e-02
-2.033026798816792e-01 6.424598351524159e-01 5.644704638102612e-02
5.078788069563337e-04 2.662819494101388e-01 6.483392179520944e-02
0.000000000000000e+00 0.000000000000000e+00 0.000000000000000e+00
-9.791613088683659e-03 8.616547215294723e-03 6.647834116117183e-04
1.766239023621521e-02 1.018958040537434e-02 1.422774226446823e-02
0.000000000000000e+00 0.000000000000000e+00 0.000000000000000e+00
0.000000000000000e+00 0.000000000000000e+00 0.000000000000000e+00
0.000000000000000e+00 0.000000000000000e+00 0.000000000000000e+00
0.000000000000000e+00 0.000000000000000e+00 0.000000000000000e+00
-2.135854169721250e-03 1.162572713197435e-02 4.351714348761560e-03
1.867289709235147e-04 1.148753052921807e-02 4.170818138780397e-03
0.000000000000000e+00 0.000000000000000e+00 0.000000000000000e+00
0.000000000000000e+00 0.000000000000000e+00 0.000000000000000e+00
-1.500188724311468e-02 1.140538430397026e-02 1.493195758635435e-03
0.000000000000000e+00 0.000000000000000e+00 0.000000000000000e+00
-1.139556821860244e-02 2.765419798428020e-02 9.935189571390458e-03
1.569301692032923e-02 1.687862072669660e-02 4.595807007502430e-03
0.000000000000000e+00 0.000000000000000e+00 0.000000000000000e+00
0.000000000000000e+00 0.000000000000000e+00 0.000000000000000e+00
-1.916678372239804e-02 1.387346377175346e-02 2.323421301054478e-03
-4.227873904854692e-02 2.590284124891810e-02 1.403090164054992e-02
0.000000000000000e+00 0.000000000000000e+00 0.000000000000000e+00
1.726648073289325e-02 1.723983167001205e-02 6.423681792740584e-03
-1.435731237317429e-01 9.426164873913799e-01 1.092033921705249e-01
-1.991357210859713e-01 8.620488635525430e-01 8.281762053844510e-02
-2.023436144040864e-01 8.187295826955558e-01 7.698473928501452e-02
-1.138443704767600e-01 8.530970078822481e-01 1.097150648582053e-01
-8.010377148190370e-02 8.496309986830505e-01 1.218639161365748e-01
-3.388121281084172e-02 7.031325808703102e-01 1.187362328066497e-01
-1.658174755028120e-01 8.186402880946230e-01 8.943633818376437e-02
-8.377603803281897e-02 8.071147655285675e-01 1.147430364970635e-01
-2.675740657710688e-01 9.593174515616604e-01 6.799615877513839e-02
-1.766417337263069e-01 9.953810982774789e-01 1.043650629429873e-01
-3.214040726040987e-01 8.741785461727979e-01 4.240736132074190e-02
-3.575043216638688e-01 9.238919005865521e-01 3.073145054326479e-02
-2.324671475264719e-01 9.081228647791121e-01 7.632811711669590e-02
-2.914531091018878e-01 7.848928525435290e-01 4.408006445593277e-02
1.989542610525390e-02 3.454856714596234e-02 5.622112501442999e-03