<?xml version="1.0" ?> 
<!-- 
# vtk DataFile Version 3.0
-->
<VTKFile type="UnstructuredGrid" version="0.1" compressor="vtkZLibDataCompressor" byte_order="LittleEndian">
  <UnstructuredGrid>
    <FieldData>
      <DataArray type="Float64" Name="TIME" NumberOfTuples="1" format="ascii">
1.000000000000000e+00 
      </DataArray>
    </FieldData>

    <Piece NumberOfPoints="120" NumberOfCells="20" >
      <Points>
        <DataArray type="Float64" NumberOfComponents="3" format="ascii">
9.627979967263017e-01 -3.228133965669629e-02 -4.735793709449160e-02
9.625243285786816e-01 1.373349157561383e-01 9.503127177333351e-02
9.324000122016245e-01 2.967428182899169e-01 2.446526987566620e-01
8.753264107770327e-01 4.447730206872310e-01 3.986437324357219e-01
7.942048874868081e-01 5.802561756906723e-01 5.541417613907416e-01
6.919368055128531e-01 7.020229360428323e-01 7.082841742019488e-01
6.919368055128531e-01 7.020229360428323e-01 7.082841742019488e-01
5.721533846069260e-01 8.038731878585899e-01 8.624315623732135e-01
4.391581588806369e-01 8.820702373196799e-01 1.019382490628609e+00
2.968609630560260e-01 9.391398672686079e-01 1.178431307378178e+00
1.491716318551335e-01 9.776078605478794e-01 1.338872361031961e+00
0.000000000000000e+00 1.000000000000000e+00 1.500000000000000e+00
1.000000000000000e-01 3.000000000000000e-01 2.500000000000000e+00
3.100000000000252e-01 3.000000000000000e-01 2.609999999999952e+00
5.200000000000125e-01 2.999999999999999e-01 2.719999999999975e+00
7.299999999999871e-01 2.999999999999999e-01 2.830000000000023e+00
9.399999999999745e-01 3.000000000000000e-01 2.940000000000047e+00
1.150000000000000e+00 3.000000000000002e-01 3.049999999999999e+00
1.150000000000000e+00 3.000000000000002e-01 3.049999999999999e+00
1.360000000000025e+00 3.000000000000004e-01 3.159999999999951e+00
1.570000000000012e+00 3.000000000000008e-01 3.269999999999975e+00
1.779999999999988e+00 3.000000000000010e-01 3.380000000000022e+00
1.989999999999976e+00 3.000000000000014e-01 3.490000000000046e+00
2.200000000000001e+00 3.000000000000018e-01 3.599999999999999e+00
1.000657182267889e+00 7.271671190423605e-04 4.929332096734675e+00
9.882664578981023e-01 1.571076717332064e-01 5.086246615203122e+00
9.511138939934611e-01 3.094123493034815e-01 5.243318346315956e+00
8.908288359476106e-01 4.542089116816740e-01 5.400466829358524e+00
8.090406291541956e-01 5.880650707195905e-01 5.557611603616174e+00
7.073786190068612e-01 7.075485382690365e-01 5.714672208374248e+00
7.073786190068612e-01 7.075485382690365e-01 5.714672208374248e+00
5.878718857865858e-01 8.091213766167107e-01 5.871698803911526e+00
4.538302306182559e-01 8.905814808735205e-01 6.028775066925895e+00
3.088040801593778e-01 9.505003121295897e-01 6.185870811334202e+00
1.563438610674571e-01 9.874493314750418e-01 6.342955851053287e+00
0.000000000000000e+00 1.000000000000000e+00 6.500000000000000e+00
1.000000000000000e-01 3.000000000000000e-01 7.500000000000000e+00
3.100000000000252e-01 3.000000000000001e-01 7.609999999999951e+00
5.200000000000123e-01 3.000000000000003e-01 7.719999999999976e+00
7.299999999999868e-01 3.000000000000005e-01 7.830000000000025e+00
9.399999999999744e-01 3.000000000000007e-01 7.940000000000049e+00
1.150000000000000e+00 3.000000000000007e-01 8.050000000000001e+00
1.150000000000000e+00 3.000000000000007e-01 8.050000000000001e+00
1.360000000000025e+00 3.000000000000003e-01 8.159999999999952e+00
1.570000000000013e+00 2.999999999999998e-01 8.269999999999975e+00
1.779999999999988e+00 2.999999999999992e-01 8.380000000000020e+00
1.989999999999975e+00 2.999999999999987e-01 8.490000000000048e+00
2.199999999999999e+00 2.999999999999985e-01 8.600000000000001e+00
1.000670231616663e+00 7.211488195690083e-04 9.929322742970442e+00
9.882495819432486e-01 1.570843566804904e-01 1.008625728706942e+01
9.510939719373912e-01 3.093898273708605e-01 1.024333563999150e+01
8.908202836584171e-01 4.541960111459877e-01 1.040048224201038e+01
8.090453991656530e-01 5.880613582611813e-01 1.055762153339977e+01
7.073862005184256e-01 7.075443189717494e-01 1.071467795443339e+01
7.073862005184256e-01 7.075443189717494e-01 1.071467795443339e+01
5.878733291510522e-01 8.091106944282069e-01 1.087170168577776e+01
4.538270124419893e-01 8.905681714694208e-01 1.102877427115168e+01
3.087985113647707e-01 9.504880288852310e-01 1.118586719541008e+01
1.563390868929296e-01 9.874415454654774e-01 1.134295194340788e+01
0.000000000000000e+00 1.000000000000000e+00 1.150000000000000e+01
1.000000000000000e-01 3.000000000000000e-01 1.250000000000000e+01
3.100000000000252e-01 3.000000000000000e-01 1.260999999999995e+01
5.200000000000129e-01 3.000000000000000e-01 1.271999999999997e+01
7.299999999999879e-01 2.999999999999997e-01 1.283000000000002e+01
9.399999999999757e-01 2.999999999999990e-01 1.294000000000005e+01
1.150000000000001e+00 2.999999999999975e-01 1.305000000000000e+01
1.150000000000001e+00 2.999999999999975e-01 1.305000000000000e+01
1.360000000000027e+00 2.999999999999959e-01 1.315999999999995e+01
1.570000000000013e+00 2.999999999999947e-01 1.326999999999997e+01
1.779999999999988e+00 2.999999999999939e-01 1.338000000000002e+01
1.989999999999974e+00 2.999999999999932e-01 1.349000000000005e+01
2.199999999999998e+00 2.999999999999928e-01 1.360000000000000e+01
9.861020553004307e-01 -7.109106508216274e-03 1.494040834039576e+01
9.747291812188326e-01 1.551621456272316e-01 1.509148585145111e+01
9.401436918508148e-01 3.106015240162263e-01 1.524573271510733e+01
8.829107592191313e-01 4.571801269632812e-01 1.540159657266474e+01
8.035955553465362e-01 5.928690527729099e-01 1.555752506542368e+01
7.027632522557831e-01 7.156393997496256e-01 1.571196583468447e+01
7.027632522557831e-01 7.156393997496256e-01 1.571196583468447e+01
5.821030797056967e-01 8.161016703140646e-01 1.586636546397236e+01
4.463551589459240e-01 8.896389270589089e-01 1.602287074362665e+01
3.006609992356161e-01 9.413811085465715e-01 1.618097962516855e+01
1.501621098339243e-01 9.764581533394644e-01 1.634019006011927e+01
0.000000000000000e+00 1.000000000000000e+00 1.650000000000000e+01
1.000000000000000e-01 3.000000000000000e-01 1.750000000000000e+01
3.100000000000251e-01 2.999999999999999e-01 1.760999999999995e+01
5.200000000000126e-01 3.000000000000000e-01 1.771999999999997e+01
7.299999999999874e-01 3.000000000000000e-01 1.783000000000002e+01
9.399999999999752e-01 3.000000000000001e-01 1.794000000000005e+01
1.150000000000001e+00 3.000000000000000e-01 1.805000000000000e+01
1.150000000000001e+00 3.000000000000000e-01 1.805000000000000e+01
1.360000000000026e+00 3.000000000000000e-01 1.815999999999995e+01
1.570000000000012e+00 3.000000000000000e-01 1.826999999999997e+01
1.779999999999986e+00 3.000000000000002e-01 1.838000000000002e+01
1.989999999999974e+00 3.000000000000006e-01 1.849000000000005e+01
2.200000000000000e+00 3.000000000000011e-01 1.860000000000000e+01
1.000743240564508e+00 8.366366550951653e-04 1.992935013389621e+01
9.883791719206426e-01 1.572262733977447e-01 2.008625296418147e+01
9.512265608471948e-01 3.095201470303902e-01 2.024332811703483e+01
8.909243938356092e-01 4.542976808403749e-01 2.040048560197842e+01
8.091116573773300e-01 5.881382981150424e-01 2.055763542853440e+01
7.074273379638014e-01 7.076214221417357e-01 2.071468760622489e+01
7.074273379638014e-01 7.076214221417357e-01 2.071468760622489e+01
5.879045030159986e-01 8.091945726401975e-01 2.087170099803000e+01
4.538502780745819e-01 8.906389945533322e-01 2.102877224967315e+01
3.088147368106864e-01 9.505346990030622e-01 2.118586804479126e+01
1.563479528954473e-01 9.874616971113106e-01 2.134295506702123e+01
0.000000000000000e+00 1.000000000000000e+00 2.150000000000000e+01
1.000000000000000e-01 3.000000000000000e-01 2.250000000000000e+01
3.100000000000256e-01 2.999999999999998e-01 2.260999999999995e+01
5.200000000000137e-01 2.999999999999988e-01 2.271999999999997e+01
7.299999999999891e-01 2.999999999999977e-01 2.283000000000002e+01
9.399999999999766e-01 2.999999999999965e-01 2.294000000000005e+01
1.150000000000000e+00 2.999999999999958e-01 2.305000000000000e+01
1.150000000000000e+00 2.999999999999958e-01 2.305000000000000e+01
1.360000000000024e+00 2.999999999999953e-01 2.315999999999996e+01
1.570000000000012e+00 2.999999999999945e-01 2.326999999999998e+01
1.779999999999988e+00 2.999999999999932e-01 2.338000000000002e+01
1.989999999999978e+00 2.999999999999913e-01 2.349000000000004e+01
2.200000000000006e+00 2.999999999999886e-01 2.359999999999999e+01
        </DataArray>
      </Points>

      <Cells>
        <DataArray type="Int32" Name="connectivity" format="ascii">
0 1 2 3 4 5 6 7 8 9 10 11 12 13 14 15 16 17 18 19 20 21 22 23 24 25 26 27 28 29 30 31 32 33 34 35 36 37 38 39 40 41 42 43 44 45 46 47 48 49 50 51 52 53 54 55 56 57 58 59 60 61 62 63 64 65 66 67 68 69 70 71 72 73 74 75 76 77 78 79 80 81 82 83 84 85 86 87 88 89 90 91 92 93 94 95 96 97 98 99 100 101 102 103 104 105 106 107 108 109 110 111 112 113 114 115 116 117 118 119 
        </DataArray>
        <DataArray type="Int32" Name="offsets" format="ascii">
6 12 18 24 30 36 42 48 54 60 66 72 78 84 90 96 102 108 114 120 
        </DataArray>
        <DataArray type="UInt8" Name="types" format="ascii">
4 4 4 4 4 4 4 4 4 4 4 4 4 4 4 4 4 4 4 4 
        </DataArray>
      </Cells>

  <PointData>
        <DataArray type="Float64" Name="base_vector_1" NumberOfComponents="3" format="ascii">
6.709649895251846e-02 7.799319013691156e-01 6.222574138208973e-01
-7.220305084299139e-02 7.459394206077381e-01 6.620884383768961e-01
-1.992915149654007e-01 6.980230284688698e-01 6.877839368507689e-01
-3.135106014762661e-01 6.412759614580054e-01 7.003400916826777e-01
-4.151884183932535e-01 5.798177407867283e-01 7.010206592541216e-01
-5.052991570246319e-01 5.167446595948523e-01 6.911206252821551e-01
-5.052991570246319e-01 5.167446595948525e-01 6.911206252821552e-01
-5.713967490673584e-01 4.155079939135672e-01 7.077138278634791e-01
-6.236969896600058e-01 3.110583578520737e-01 7.171086131817259e-01
-6.630467734342897e-01 2.057740828250882e-01 7.197402330534759e-01
-6.904768493686109e-01 1.015859793240808e-01 7.161857365870709e-01
-7.071067811881102e-01 -1.051880804681105e-12 7.071067811849856e-01
8.858315352803766e-01 6.742229338580262e-33 4.640069946701353e-01
8.858315352803767e-01 -1.640647708694478e-16 4.640069946701350e-01
8.858315352803768e-01 -1.262530900685245e-16 4.640069946701349e-01
8.858315352803767e-01 1.134350424027699e-16 4.640069946701351e-01
8.858315352803765e-01 5.549996265444355e-16 4.640069946701354e-01
8.858315352803763e-01 1.198440662356472e-15 4.640069946701360e-01
8.858315352803763e-01 1.198440662356471e-15 4.640069946701358e-01
8.858315352803774e-01 1.240251476382322e-15 4.640069946701337e-01
8.858315352803779e-01 1.320854797551103e-15 4.640069946701327e-01
8.858315352803778e-01 1.440250625862814e-15 4.640069946701330e-01
8.858315352803771e-01 1.598438961317456e-15 4.640069946701343e-01
8.858315352803757e-01 1.795419803915028e-15 4.640069946701370e-01
2.203897477413785e-03 7.080737349349884e-01 7.061350640855656e-01
-1.103407223613919e-01 6.986354538543957e-01 7.069182609088758e-01
-2.193150884160051e-01 6.720409313473559e-01 7.072919330706796e-01
-3.221328969684913e-01 6.292097637300661e-01 7.073368857322808e-01
-4.164146309249959e-01 5.714383455193456e-01 7.071471363314094e-01
-5.000397655549773e-01 5.003573922560297e-01 7.068258009428273e-01
-5.000397655549778e-01 5.003573922560294e-01 7.068258009428273e-01
-5.723268890527884e-01 4.154757904867406e-01 7.069807632365791e-01
-6.303333980742771e-01 3.205393998294433e-01 7.070603230482646e-01
-6.727046738264346e-01 2.179281049299078e-01 7.070896427566529e-01
-6.984788172175342e-01 1.101945380766400e-01 7.070958249604301e-01
-7.071067811881102e-01 -1.051991826983567e-12 7.071067811849854e-01
8.858315352803766e-01 -2.538660488082664e-31 4.640069946701351e-01
8.858315352803757e-01 7.909512352163345e-16 4.640069946701370e-01
8.858315352803755e-01 1.098165248999891e-15 4.640069946701374e-01
8.858315352803759e-01 9.216420413506689e-16 4.640069946701364e-01
8.858315352803772e-01 2.613816122686681e-16 4.640069946701341e-01
8.858315352803792e-01 -8.826160382461107e-16 4.640069946701303e-01
8.858315352803792e-01 -8.826160382461104e-16 4.640069946701305e-01
8.858315352803784e-01 -1.904106027802580e-15 4.640069946701320e-01
8.858315352803771e-01 -2.378621973629523e-15 4.640069946701344e-01
8.858315352803753e-01 -2.306163875726941e-15 4.640069946701377e-01
8.858315352803731e-01 -1.686731734094832e-15 4.640069946701421e-01
8.858315352803704e-01 -5.203255487331982e-16 4.640069946701472e-01
2.005132571989199e-03 7.079515313398176e-01 7.062581742655984e-01
-1.103906101302714e-01 6.985827890232728e-01 7.069625167401258e-01
-2.192825222203887e-01 6.720530820907569e-01 7.072904850915072e-01
-3.220783931865006e-01 6.292598739791562e-01 7.073171280565315e-01
-4.163870068267443e-01 5.714800689984463e-01 7.071296849117539e-01
-5.000712129664953e-01 5.003287970267587e-01 7.068237947522533e-01
-5.000712129664948e-01 5.003287970267585e-01 7.068237947522530e-01
-5.723473055857089e-01 4.154641462115740e-01 7.069710779101699e-01
-6.303471938612852e-01 3.205398625299187e-01 7.070478143099689e-01
-6.727143108881908e-01 2.179347684978362e-01 7.070784204075393e-01
-6.984845980118948e-01 1.102010079302188e-01 7.070891062598300e-01
-7.071067811881098e-01 -1.052102849286030e-12 7.071067811849852e-01
8.858315352803766e-01 1.749974978447605e-31 4.640069946701351e-01
8.858315352803775e-01 1.232149787724579e-16 4.640069946701335e-01
8.858315352803782e-01 -5.489358802525738e-16 4.640069946701323e-01
8.858315352803785e-01 -2.016452577075094e-15 4.640069946701316e-01
8.858315352803785e-01 -4.279335111695104e-15 4.640069946701315e-01
8.858315352803784e-01 -7.337583484112601e-15 4.640069946701319e-01
8.858315352803783e-01 -7.337583484112603e-15 4.640069946701319e-01
8.858315352803758e-01 -5.716230824234862e-15 4.640069946701367e-01
8.858315352803741e-01 -4.343234931247829e-15 4.640069946701400e-01
8.858315352803731e-01 -3.218595805151510e-15 4.640069946701420e-01
8.858315352803727e-01 -2.342313445945901e-15 4.640069946701426e-01
8.858315352803732e-01 -1.714387853631003e-15 4.640069946701417e-01
2.511880868268923e-03 7.409063312977966e-01 6.716036768045149e-01
-1.030097927086324e-01 7.174019597616996e-01 6.890017494434952e-01
-2.073770996117885e-01 6.833752857876458e-01 6.999949695042499e-01
-3.095045992556149e-01 6.389504517074525e-01 7.042366245108694e-01
-4.081721413393840e-01 5.841950782760177e-01 7.015066739187158e-01
-5.019871207282465e-01 5.191581081676693e-01 6.917252267676316e-01
-5.019871207282465e-01 5.191581081676693e-01 6.917252267676316e-01
-5.819718762481800e-01 4.032819073451106e-01 7.061674294841576e-01
-6.386689281679903e-01 2.891771327353159e-01 7.130768444534796e-01
-6.756958539078433e-01 1.818313019495741e-01 7.144035908665873e-01
-6.971250774790763e-01 8.471764346434818e-02 7.119266445608285e-01
-7.071067811881098e-01 -1.051936315832336e-12 7.071067811849855e-01
8.858315352803766e-01 -1.460540730402464e-31 4.640069946701353e-01
8.858315352803768e-01 3.396110774430342e-16 4.640069946701348e-01
8.858315352803771e-01 4.450923273402936e-16 4.640069946701344e-01
8.858315352803773e-01 3.164437496917780e-16 4.640069946701340e-01
8.858315352803774e-01 -4.633465550251275e-17 4.640069946701338e-01
8.858315352803775e-01 -6.432428882425782e-16 4.640069946701336e-01
8.858315352803775e-01 -6.432428882425785e-16 4.640069946701336e-01
8.858315352803737e-01 3.315374693441394e-17 4.640069946701407e-01
8.858315352803725e-01 6.430955766267925e-16 4.640069946701431e-01
8.858315352803738e-01 1.186582600834557e-15 4.640069946701407e-01
8.858315352803776e-01 1.663614819557709e-15 4.640069946701335e-01
8.858315352803838e-01 2.074192232796246e-15 4.640069946701215e-01
2.383633171032074e-03 7.081668105908644e-01 7.060411366701442e-01
-1.103061755120280e-01 6.986421119014169e-01 7.069170723089365e-01
-2.193673990185925e-01 6.719814522092278e-01 7.073322218975990e-01
-3.222228378120193e-01 6.291235405327772e-01 7.073726129416323e-01
-4.165070084959193e-01 5.713806610580199e-01 7.071393441484366e-01
-5.001174097300953e-01 5.003951583365676e-01 7.067441276715225e-01
-5.001174097300956e-01 5.003951583365678e-01 7.067441276715226e-01
-5.724036212976564e-01 4.154317065420162e-01 7.069445462869898e-01
-6.303895415369165e-01 3.204472270562092e-01 7.070520494227162e-01
-6.727324817615101e-01 2.178267058239962e-01 7.070944309021721e-01
-6.984835183775169e-01 1.101244810075322e-01 7.071020953425234e-01
-7.071067811881102e-01 -1.052158360437261e-12 7.071067811849854e-01
8.858315352803766e-01 1.737923323148716e-30 4.640069946701353e-01
8.858315352803797e-01 -2.995207207687192e-15 4.640069946701295e-01
8.858315352803803e-01 -4.660322546286640e-15 4.640069946701282e-01
8.858315352803785e-01 -4.995346015798344e-15 4.640069946701318e-01
8.858315352803742e-01 -4.000277616222300e-15 4.640069946701399e-01
8.858315352803675e-01 -1.675117347558514e-15 4.640069946701528e-01
8.858315352803675e-01 -1.675117347558515e-15 4.640069946701528e-01
8.858315352803761e-01 -2.810399297844366e-15 4.640069946701363e-01
8.858315352803821e-01 -4.493385091568425e-15 4.640069946701249e-01
8.858315352803854e-01 -6.724074728730688e-15 4.640069946701184e-01
8.858315352803863e-01 -9.502468209331162e-15 4.640069946701169e-01
8.858315352803845e-01 -1.282856553336984e-14 4.640069946701202e-01
        </DataArray>
        <DataArray type="Float64" Name="base_vector_2" NumberOfComponents="3" format="ascii">
-5.357236540893728e-02 6.255793495500450e-01 -7.783190085569246e-01
-1.606175707941561e-01 6.464609461914823e-01 -7.458486716495497e-01
-2.657334380884541e-01 6.370696322294285e-01 -7.235523640848328e-01
-3.631463167346419e-01 6.004927952469650e-01 -7.124136126566855e-01
-4.481610307418934e-01 5.402275883981020e-01 -7.122540580845677e-01
-5.171001280625179e-01 4.598578132498679e-01 -7.218990574524788e-01
-5.171001280625181e-01 4.598578132498676e-01 -7.218990574524790e-01
-5.928173991153619e-01 3.873635234357627e-01 -7.060573857821539e-01
-6.508448170782455e-01 3.014212014510618e-01 -6.968115121022210e-01
-6.897158786867261e-01 2.057863852797809e-01 -6.942218451769429e-01
-7.085735799353889e-01 1.041417137356759e-01 -6.979097257366056e-01
-7.071067811849856e-01 -4.360956040727615e-13 -7.071067811881100e-01
-4.625752649257174e-33 1.000000000000000e+00 -5.699465305133091e-33
1.453337478644209e-16 1.000000000000000e+00 7.612720126292127e-17
1.118389686087891e-16 1.000000000000000e+00 5.858231689147530e-17
-1.004843377668954e-16 1.000000000000000e+00 -5.263465311433791e-17
-4.916361712626329e-16 1.000000000000000e+00 -2.575237087545185e-16
-1.061616531878422e-15 1.000000000000000e+00 -5.560848500290666e-16
-1.061616531878422e-15 1.000000000000000e+00 -5.560848500290663e-16
-1.098653869458307e-15 1.000000000000000e+00 -5.754853601898291e-16
-1.170054833197978e-15 1.000000000000000e+00 -6.128858650057255e-16
-1.275819423097433e-15 1.000000000000000e+00 -6.682863644767560e-16
-1.415947639156674e-15 1.000000000000000e+00 -7.416868586029206e-16
-1.590439481375698e-15 1.000000000000000e+00 -8.330873473842199e-16
-1.052185150088703e-03 7.061380300829572e-01 -7.080734251311589e-01
-1.116179050298499e-01 6.980514208932543e-01 -7.072946041542070e-01
-2.194362965170036e-01 6.723909505486954e-01 -7.069215807931766e-01
-3.217896242451623e-01 6.299024531461392e-01 -7.068764653379210e-01
-4.161354587573669e-01 5.717415797968926e-01 -7.070663659771615e-01
-5.001662905437915e-01 4.994363514166930e-01 -7.073874558452712e-01
-5.001662905437911e-01 4.994363514166932e-01 -7.073874558452711e-01
-5.722218863335720e-01 4.151914336504967e-01 -7.072327666504814e-01
-6.301541617976777e-01 3.206868494602682e-01 -7.071532202799575e-01
-6.725561057419289e-01 2.182753267205932e-01 -7.071238691871957e-01
-6.984093822520200e-01 1.104938343039966e-01 -7.071177040374206e-01
-7.071067811849854e-01 -4.363176486776865e-13 -7.071067811881100e-01
2.260526281625698e-31 1.000000000000000e+00 1.155618401549592e-31
-7.006495470236048e-16 1.000000000000000e+00 -3.670069055833456e-16
-9.727894085133095e-16 1.000000000000000e+00 -5.095563568392779e-16
-8.164195844691147e-16 1.000000000000000e+00 -4.276483537677963e-16
-2.315400748910191e-16 1.000000000000000e+00 -1.212828963689014e-16
7.818491202209782e-16 1.000000000000000e+00 4.095400153574035e-16
7.818491202209781e-16 1.000000000000000e+00 4.095400153574032e-16
1.686717165942664e-15 1.000000000000000e+00 8.835185154983842e-16
2.107058354749086e-15 1.000000000000000e+00 1.103697233445515e-15
2.042872686640246e-15 1.000000000000000e+00 1.070076169198796e-15
1.494160161616144e-15 1.000000000000000e+00 7.826553227582227e-16
4.609207796767846e-16 1.000000000000000e+00 2.414346941237916e-16
-9.297505501475456e-04 7.062606086062506e-01 -7.079513318689663e-01
-1.114997376689600e-01 6.981149558735911e-01 -7.072505333227874e-01
-2.193242300056411e-01 6.724259924495104e-01 -7.069230275006777e-01
-3.216905891830357e-01 6.299308662095393e-01 -7.068962219644206e-01
-4.160580013344733e-01 5.717763791717765e-01 -7.070838081492012e-01
-5.001173173959546e-01 4.994824770112724e-01 -7.073895136340078e-01
-5.001173173959543e-01 4.994824770112726e-01 -7.073895136340076e-01
-5.721829453643450e-01 4.152285954291137e-01 -7.072424552953170e-01
-6.301256592455332e-01 3.207152915850756e-01 -7.071657198308485e-01
-6.725379928833644e-01 2.182947994895146e-01 -7.071350851458640e-01
-6.984010004647054e-01 1.105038255499813e-01 -7.071244212221194e-01
-7.071067811849852e-01 -4.356515148629114e-13 -7.071067811881100e-01
-1.587201481282646e-31 1.000000000000000e+00 -7.413290261459286e-32
-1.091477138143185e-16 1.000000000000000e+00 -5.717261200089488e-17
4.862647135768113e-16 1.000000000000000e+00 2.547100880584231e-16
1.786237282173389e-15 1.000000000000000e+00 9.356481001779525e-16
3.790769991975416e-15 1.000000000000000e+00 1.985641424357695e-15
6.499862842982888e-15 1.000000000000000e+00 3.404690060597651e-15
6.499862842982890e-15 1.000000000000000e+00 3.404690060597651e-15
5.063617527052742e-15 1.000000000000000e+00 2.652371085586825e-15
3.847374467234592e-15 1.000000000000000e+00 2.015291387587085e-15
2.851133663528439e-15 1.000000000000000e+00 1.493450966598435e-15
2.074895115934279e-15 1.000000000000000e+00 1.086849822620878e-15
1.518658824452113e-15 1.000000000000000e+00 7.954879556544159e-16
-2.434782977559369e-02 6.714520084625932e-01 -7.406479484321606e-01
-1.341275215550844e-01 6.763418571359470e-01 -7.242730840279712e-01
-2.408290877166930e-01 6.578653020069808e-01 -7.135927374383861e-01
-3.405028951696794e-01 6.170204474242094e-01 -7.094670858056030e-01
-4.292792615849033e-01 5.553485229008839e-01 -7.122551043586326e-01
-5.034474187253699e-01 4.749229547835387e-01 -7.217955968267157e-01
-5.034474187253699e-01 4.749229547835387e-01 -7.217955968267157e-01
-5.820573336009793e-01 3.998572366794151e-01 -7.080419836961791e-01
-6.420461821522914e-01 3.105080132014006e-01 -7.009718066522972e-01
-6.826307050104065e-01 2.115213182186599e-01 -6.994812738851816e-01
-7.040100411839109e-01 1.069167375727446e-01 -7.020959144867811e-01
-7.071067811849855e-01 -4.356515148629114e-13 -7.071067811881098e-01
1.247254579496620e-31 1.000000000000000e+00 7.665472621039885e-32
-3.008382021292089e-16 1.000000000000000e+00 -1.575819154017486e-16
-3.942768196686962e-16 1.000000000000000e+00 -2.065259531611886e-16
-2.803158526184619e-16 1.000000000000000e+00 -1.468321132783201e-16
4.104469902149452e-17 1.000000000000000e+00 2.149960424685676e-17
5.698048352511725e-16 1.000000000000000e+00 2.984691994143418e-16
5.698048352511727e-16 1.000000000000000e+00 2.984691994143420e-16
-2.936863454606069e-17 1.000000000000000e+00 -1.538357047928382e-17
-5.696743419741199e-16 1.000000000000000e+00 -2.984008457985671e-16
-1.051112287033008e-15 1.000000000000000e+00 -5.505826265435033e-16
-1.473682469722725e-15 1.000000000000000e+00 -7.719289127140889e-16
-1.837384890043274e-15 1.000000000000000e+00 -9.624397043103210e-16
-1.156415520206067e-03 7.060446223926193e-01 -7.081664026862671e-01
-1.117164310430394e-01 6.980345933000999e-01 -7.072956564205453e-01
-2.195267012714378e-01 6.724038219482866e-01 -7.068812684307157e-01
-3.218601520965125e-01 6.299065699746615e-01 -7.068406861487011e-01
-4.161684021086671e-01 5.717079865642362e-01 -7.070741398078325e-01
-5.001413457175437e-01 4.993457564233462e-01 -7.074690451502742e-01
-5.001413457175437e-01 4.993457564233462e-01 -7.074690451502743e-01
-5.722219614166256e-01 4.151296519040911e-01 -7.072689721615804e-01
-6.301666751781493e-01 3.206440398672914e-01 -7.071614816945985e-01
-6.725704032926487e-01 2.182468508821827e-01 -7.071190597733700e-01
-6.984181066979958e-01 1.104788956085632e-01 -7.071114211080878e-01
-7.071067811849854e-01 -4.360956040727615e-13 -7.071067811881100e-01
-1.528941346569123e-30 1.000000000000000e+00 -8.265799161851065e-31
2.653248999267030e-15 1.000000000000000e+00 1.389797094855869e-15
4.128260676076590e-15 1.000000000000000e+00 2.162422258900248e-15
4.425035030428673e-15 1.000000000000000e+00 2.317875492133152e-15
3.543572062323278e-15 1.000000000000000e+00 1.856156794554575e-15
1.483871771760423e-15 1.000000000000000e+00 7.772661661644956e-16
1.483871771760424e-15 1.000000000000000e+00 7.772661661644957e-16
2.489540324758630e-15 1.000000000000000e+00 1.304044932019140e-15
3.980382214268568e-15 1.000000000000000e+00 2.084962112237014e-15
5.956397440290237e-15 1.000000000000000e+00 3.120017706818119e-15
8.417586002823636e-15 1.000000000000000e+00 4.409211715762468e-15
1.136394790186874e-14 1.000000000000000e+00 5.952544139070080e-15
        </DataArray>
        <DataArray type="Float64" Name="base_vector_3" NumberOfComponents="3" format="ascii">
-9.963072124062972e-01 1.888667899073171e-02 8.375698098603523e-02
-9.843722443268852e-01 -1.601955861832832e-01 7.313452513174312e-02
-9.432224721371331e-01 -3.269650369966307e-01 5.852548707449423e-02
-8.774029036902339e-01 -4.776751449600425e-01 4.461614599390029e-02
-7.916882389908749e-01 -6.098897770929969e-01 3.555547835400652e-02
-6.908547021392590e-01 -7.221535490276636e-01 3.484296426577138e-02
-6.908547021392591e-01 -7.221535490276637e-01 3.484296426577138e-02
-5.675150098996085e-01 -8.229839656429248e-01 2.498211026500985e-02
-4.329007844430779e-01 -9.013256666300865e-01 1.445522405216282e-02
-2.909656043689277e-01 -9.567178217588379e-01 5.479653570196308e-03
-1.454826529299789e-01 -9.893607998424865e-01 7.369865284845289e-05
1.051880804681105e-12 -1.000000000000000e+00 -4.360956040727615e-13
-4.640069946701353e-01 2.902384516654050e-33 8.858315352803766e-01
-4.640069946701350e-01 -6.147136974176514e-28 8.858315352803767e-01
-4.640069946701349e-01 -1.085324694164383e-27 8.858315352803768e-01
-4.640069946701351e-01 -1.411863805119306e-27 8.858315352803767e-01
-4.640069946701354e-01 -1.594460452774682e-27 8.858315352803765e-01
-4.640069946701360e-01 -1.633287200453529e-27 8.858315352803763e-01
-4.640069946701358e-01 -1.633336504260105e-27 8.858315352803763e-01
-4.640069946701337e-01 -1.725436014944658e-27 8.858315352803774e-01
-4.640069946701327e-01 -1.792982229954207e-27 8.858315352803779e-01
-4.640069946701330e-01 -1.836024453095329e-27 8.858315352803778e-01
-4.640069946701343e-01 -1.854957114820633e-27 8.858315352803771e-01
-4.640069946701370e-01 -1.849878822743273e-27 8.858315352803757e-01
-9.999970178667134e-01 8.175364070827640e-04 2.301280492272073e-03
-9.876063832648685e-01 -1.569481328546832e-01 9.567277120481332e-04
-9.506569327386100e-01 -3.102440913442197e-01 4.692312992715664e-06
-8.903268132651316e-01 -4.553218342526858e-01 -4.391285974398862e-04
-8.083502552213339e-01 -5.887017778140869e-01 -2.858008713535476e-04
-7.069610418314346e-01 -7.072522964956193e-01 5.238647588267087e-04
-7.069610418314346e-01 -7.072522964956194e-01 5.238647588260426e-04
-5.873704494337509e-01 -8.093181951140500e-01 1.191189756983846e-04
-4.534154161927031e-01 -8.912992975091072e-01 -1.503947153718155e-04
-3.084423875561257e-01 -9.512429883193243e-01 -2.659548825585389e-04
-1.560502376824435e-01 -9.877490958532320e-01 -2.167034288333980e-04
1.052213871588492e-12 -1.000000000000000e+00 -4.356515148629114e-13
-4.640069946701351e-01 2.521678346706581e-33 8.858315352803766e-01
-4.640069946701370e-01 -2.078155447191603e-29 8.858315352803757e-01
-4.640069946701374e-01 -3.887605148542299e-28 8.858315352803755e-01
-4.640069946701364e-01 -1.103123368338432e-27 8.858315352803759e-01
-4.640069946701341e-01 -2.164732931539609e-27 8.858315352803772e-01
-4.640069946701303e-01 -3.577262338047695e-27 8.858315352803792e-01
-4.640069946701305e-01 -3.577163730434543e-27 8.858315352803792e-01
-4.640069946701320e-01 -4.997039404122499e-27 8.858315352803784e-01
-4.640069946701344e-01 -6.024727948399172e-27 8.858315352803771e-01
-4.640069946701377e-01 -6.662028952204597e-27 8.858315352803753e-01
-4.640069946701421e-01 -6.911802036320200e-27 8.858315352803731e-01
-4.640069946701472e-01 -6.779100840920053e-27 8.858315352803704e-01
-9.999975575006590e-01 7.628923488441353e-04 2.074364476370216e-03
-9.876141562851456e-01 -1.568999530467740e-01 8.264617961919463e-04
-9.506903058205116e-01 -3.101418055190328e-01 -5.374287840353986e-05
-8.903823187111674e-01 -4.552132629836661e-01 -4.601415977516510e-04
-8.084043543125115e-01 -5.886274738395618e-01 -3.113997875894281e-04
-7.069734441992097e-01 -7.072399522258628e-01 4.462876504307545e-04
-7.069734441992094e-01 -7.072399522258626e-01 4.462876504310875e-04
-5.873884905434925e-01 -8.093051073301424e-01 6.653107662957236e-05
-4.534358485514632e-01 -8.912888972004536e-01 -1.815918879186640e-04
-3.084608630841880e-01 -9.512369931807882e-01 -2.806238240291581e-04
-1.560618751971785e-01 -9.877472563312858e-01 -2.207259773712167e-04
1.051936315832336e-12 -1.000000000000000e+00 -4.358735594678365e-13
-4.640069946701351e-01 -7.977995988719311e-33 8.858315352803766e-01
-4.640069946701335e-01 2.644304895131586e-27 8.858315352803775e-01
-4.640069946701323e-01 4.715662579991480e-27 8.858315352803782e-01