<?xml version="1.0" ?> 
<!-- 
# vtk DataFile Version 3.0
-->
<VTKFile type="UnstructuredGrid" version="0.1" compressor="vtkZLibDataCompressor" byte_order="LittleEndian">
  <UnstructuredGrid>
    <FieldData>
      <DataArray type="Float64" Name="TIME" NumberOfTuples="1" format="ascii">
3.000000000000000e+00 
      </DataArray>
    </FieldData>

    <Piece NumberOfPoints="120" NumberOfCells="20" >
      <Points>
        <DataArray type="Float64" NumberOfComponents="3" format="ascii">
1.328280667994814e+00 2.706090852537366e-01 -3.004723331474635e-02
1.197746822531452e+00 3.927780420394189e-01 1.029781141511139e-01
1.075065050500798e+00 5.055980414221922e-01 2.472464269420002e-01
9.553796720927611e-01 6.087398744908037e-01 3.987925108942481e-01
8.338350074972545e-01 7.018743323339995e-01 5.536511718441930e-01
7.055753769041897e-01 7.846722060405268e-01 7.078572156281702e-01
7.055753769041897e-01 7.846722060405268e-01 7.078572156281702e-01
5.704515547656736e-01 8.545631704485938e-01 8.624469763927288e-01
4.318637036465497e-01 9.099343966218771e-01 1.020242604721191e+00
2.902802259062649e-01 9.518929199870740e-01 1.179957631104556e+00
1.461695239042660e-01 9.815457759708826e-01 1.340305586033826e+00
0.000000000000000e+00 1.000000000000000e+00 1.500000000000000e+00
1.000000000000000e-01 3.000000000000000e-01 2.500000000000000e+00
3.043934143741020e-01 3.121600994378311e-01 2.610314462456858e+00
5.039572161938775e-01 3.460947086783865e-01 2.724304017004711e+00
6.985334302373950e-01 3.998900825690617e-01 2.839987209191931e+00
8.879640812827236e-01 4.716324759572517e-01 2.955382584566888e+00
1.072091194107932e+00 5.594081436903522e-01 3.068508688677949e+00
1.072091194107932e+00 5.594081436903522e-01 3.068508688677949e+00
1.253286537217083e+00 6.590178963333636e-01 3.177902234343285e+00
1.432452857795168e+00 7.688258479577454e-01 3.283148495648800e+00
1.607228648641652e+00 8.907632086705821e-01 3.383838860044464e+00
1.775252402555997e+00 1.026761188578958e+00 3.479564714980249e+00
1.934162612337667e+00 1.178750997789958e+00 3.569917447906126e+00
1.411971574608794e+00 3.753854152970670e-01 4.979584958765174e+00
1.262539700463898e+00 4.767363085077237e-01 5.111339169156831e+00
1.123137809092730e+00 5.757938246010893e-01 5.252301115990771e+00
9.895374051955991e-01 6.691665788614118e-01 5.400303833123514e+00
8.575099934728165e-01 7.534631865729395e-01 5.553180354411584e+00
7.228270786246922e-01 8.252922630199201e-01 5.708763713711497e+00
7.228270786246922e-01 8.252922630199201e-01 5.708763713711497e+00
5.843110006236170e-01 8.847568677517756e-01 5.866274390157026e+00
4.432699592902999e-01 9.333165676028777e-01 6.025487846988885e+00
2.992042490950511e-01 9.696147387860602e-01 6.185069594226831e+00
1.516141645081809e-01 9.922947575141564e-01 6.343685141890616e+00
0.000000000000000e+00 1.000000000000000e+00 6.500000000000000e+00
1.000000000000000e-01 3.000000000000000e-01 7.500000000000000e+00
2.990172929322413e-01 3.200461465493199e-01 7.612376374370099e+00
4.867080639921422e-01 3.757097920745570e-01 7.731781389874164e+00
6.648594205413527e-01 4.592901717922683e-01 7.854728301549198e+00
8.352584699415226e-01 5.630865209190112e-01 7.977730364432203e+00
9.996923195543016e-01 6.793980746713429e-01 8.097300833560180e+00
9.996923195543016e-01 6.793980746713429e-01 8.097300833560180e+00
1.158950316958524e+00 8.071408390812204e-01 8.210523044755291e+00
1.312299559647711e+00 9.494918826947182e-01 8.316854379019436e+00
1.459243779855538e+00 1.105142034499569e+00 8.416369159159217e+00
1.599286709815683e+00 1.272782123483508e+00 8.509141707981238e+00
1.731932081761822e+00 1.451102978634267e+00 8.595246348292100e+00
1.415276602060385e+00 3.812278204324595e-01 9.979322581153633e+00
1.265170182280358e+00 4.818174003991021e-01 1.011088723139639e+01
1.125254935926807e+00 5.802098491062405e-01 1.025182708271538e+01
9.912344620157880e-01 6.729897620970219e-01 1.039990147399739e+01
8.588123595633569e-01 7.567417349145934e-01 1.055286974412918e+01
7.236922275855711e-01 8.280503631021021e-01 1.070849123199755e+01
7.236922275855711e-01 8.280503631021021e-01 1.070849123199755e+01
5.847719176349253e-01 8.869308517496030e-01 1.086602710347876e+01
4.434651451133383e-01 9.348316292558283e-01 1.102531774552145e+01
2.992493048085172e-01 9.704871261280927e-01 1.118499132862378e+01
1.516017915081688e-01 9.926317728737117e-01 1.134367602328391e+01
0.000000000000000e+00 1.000000000000000e+00 1.150000000000000e+01
1.000000000000000e-01 3.000000000000000e-01 1.250000000000000e+01
2.987332598817194e-01 3.206028352232064e-01 1.261238986224791e+01
4.857913952065638e-01 3.777041938535211e-01 1.273183407445633e+01
6.631171038638459e-01 4.631838903823718e-01 1.285479726092891e+01
8.326530837428791e-01 5.689217393011865e-01 1.297774404596929e+01
9.963420327329753e-01 6.867975551013925e-01 1.309713905388114e+01
9.963420327329753e-01 6.867975551013925e-01 1.309713905388114e+01
1.154765984503515e+00 8.158893021030813e-01 1.321007574115503e+01
1.306947261374396e+00 9.597541537063203e-01 1.331605386478170e+01
1.452488994210703e+00 1.116990738022502e+00 1.341514749981505e+01
1.590994313877523e+00 1.286197683163018e+00 1.350743072130895e+01
1.722066351239942e+00 1.465973617239262e+00 1.359297760431728e+01
1.238441542203434e+00 1.680522775158018e-01 1.496133112779530e+01
1.135170403433569e+00 3.062191546838952e-01 1.510299648448231e+01
1.037202775816947e+00 4.390167630283952e-01 1.525139703002536e+01
9.380720622699878e-01 5.636262812626862e-01 1.540382011527413e+01
8.313116657091129e-01 6.772288881001535e-01 1.555755309107830e+01
7.104549890507432e-01 7.770057622541815e-01 1.570988330828752e+01
7.104549890507432e-01 7.770057622541815e-01 1.570988330828752e+01
5.768592531763508e-01 8.564563984882798e-01 1.586314655804067e+01
4.373220007474313e-01 9.139681596062399e-01 1.602040817938160e+01
2.935371173506339e-01 9.540540263817322e-01 1.618004984501721e+01
1.471984885726071e-01 9.812269795884286e-01 1.634045322765438e+01
0.000000000000000e+00 1.000000000000000e+00 1.650000000000000e+01
1.000000000000000e-01 3.000000000000000e-01 1.750000000000000e+01
3.061641374495033e-01 3.083746262770374e-01 1.761079837858265e+01
5.106884641757683e-01 3.295579172950978e-01 1.772353673261555e+01
7.134086874533988e-01 3.626525720703807e-01 1.783727224064113e+01
9.141605145569990e-01 4.067612896190860e-01 1.795106208120180e+01
1.112779652761172e+00 4.609867689574131e-01 1.806396343284000e+01
1.112779652761172e+00 4.609867689574131e-01 1.806396343284000e+01
1.311235983917936e+00 5.217898955466889e-01 1.817509048051260e+01
1.509820731001682e+00 5.891628084658034e-01 1.828390609548509e+01
1.705851612970583e+00 6.675050871573009e-01 1.838999048576286e+01
1.896646348782808e+00 7.612163110637256e-01 1.849292385935128e+01
2.079522657396527e+00 8.746960596276216e-01 1.859228642425575e+01
1.409124009089228e+00 3.748749118879631e-01 1.997839010812160e+01
1.260715560698603e+00 4.773500599752019e-01 2.011024856569909e+01
1.122696212486526e+00 5.775442748494346e-01 2.025166454391628e+01
9.903600693589740e-01 6.718095357513417e-01 2.040020403706746e+01
8.590012362219245e-01 7.564978219216035e-01 2.055343303944691e+01
7.239138179813537e-01 8.279611126009009e-01 2.070891754534892e+01
7.239138179813537e-01 8.279611126009009e-01 2.070891754534892e+01
5.845603594857554e-01 8.866371403006023e-01 2.086614575221986e+01
4.431213007636302e-01 9.345090079791561e-01 2.102528435723424e+01
2.989675894911687e-01 9.702467505477694e-01 2.118491710427825e+01
1.514701733445617e-01 9.925204029176484e-01 2.134362773723810e+01
0.000000000000000e+00 1.000000000000000e+00 2.150000000000000e+01
1.000000000000000e-01 3.000000000000000e-01 2.250000000000000e+01
2.986944550343946e-01 3.205567985000422e-01 2.261240355837051e+01
4.858112544318672e-01 3.773707666037971e-01 2.273181250663784e+01
6.632969691639012e-01 4.623810056774581e-01 2.285473381194635e+01
8.330981702019803e-01 5.675266170872186e-01 2.297767444144042e+01
9.971614285175876e-01 6.847467021992717e-01 2.309714136226444e+01
9.971614285175876e-01 6.847467021992717e-01 2.309714136226444e+01
1.156009286794784e+00 8.131302405770989e-01 2.321031380798625e+01
1.308619422248344e+00 9.562164299902524e-01 2.331673099382589e+01
1.454621107645820e+00 1.112619699114032e+00 2.341643985940607e+01
1.593643615754763e+00 1.280954476623738e+00 2.350948734434952e+01
1.725316219342725e+00 1.459835191194670e+00 2.359592038827895e+01
        </DataArray>
      </Points>

      <Cells>
        <DataArray type="Int32" Name="connectivity" format="ascii">
0 1 2 3 4 5 6 7 8 9 10 11 12 13 14 15 16 17 18 19 20 21 22 23 24 25 26 27 28 29 30 31 32 33 34 35 36 37 38 39 40 41 42 43 44 45 46 47 48 49 50 51 52 53 54 55 56 57 58 59 60 61 62 63 64 65 66 67 68 69 70 71 72 73 74 75 76 77 78 79 80 81 82 83 84 85 86 87 88 89 90 91 92 93 94 95 96 97 98 99 100 101 102 103 104 105 106 107 108 109 110 111 112 113 114 115 116 117 118 119 
        </DataArray>
        <DataArray type="Int32" Name="offsets" format="ascii">
6 12 18 24 30 36 42 48 54 60 66 72 78 84 90 96 102 108 114 120 
        </DataArray>
        <DataArray type="UInt8" Name="types" format="ascii">
4 4 4 4 4 4 4 4 4 4 4 4 4 4 4 4 4 4 4 4 
        </DataArray>
      </Cells>

  <PointData>
        <DataArray type="Float64" Name="base_vector_1" NumberOfComponents="3" format="ascii">
-5.925119312222089e-01 5.679309651110365e-01 5.713002977658740e-01
-5.638272839841261e-01 5.291979978343825e-01 6.340727662683247e-01
-5.490882480054111e-01 4.910754474996516e-01 6.762743531772928e-01
-5.518347720181473e-01 4.517098392896853e-01 7.010253957458079e-01
-5.735766737298835e-01 4.082187338762427e-01 7.101881896127538e-01
-6.138775491213395e-01 3.569076318940557e-01 7.041102875122303e-01
-6.138775491213391e-01 3.569076318940555e-01 7.041102875122298e-01
-6.264350786898070e-01 2.934095776803254e-01 7.221425841981268e-01
-6.426874800363240e-01 2.270708342179179e-01 7.317046120205463e-01
-6.622861803663196e-01 1.567677301254362e-01 7.326669735201050e-01
-6.842833264059238e-01 8.139849110742492e-02 7.246589645124653e-01
-7.071067811881098e-01 -1.051880804681105e-12 7.071067811849853e-01
8.858315352803766e-01 1.252138762808145e-17 4.640069946701352e-01
8.691674510196765e-01 9.866814748968564e-02 4.845745956598548e-01
8.480194436962254e-01 1.889735668874427e-01 4.951282804798991e-01
8.246842175001686e-01 2.704764534751314e-01 4.967277217164848e-01
8.011190406327933e-01 3.430694764870992e-01 4.904198375254214e-01
7.789425184449980e-01 4.068784413199464e-01 4.771776262018316e-01
7.789425184449980e-01 4.068784413199465e-01 4.771776262018317e-01
7.694564840545011e-01 4.456343933819573e-01 4.575442127069037e-01
7.527048583515030e-01 4.919229737849464e-01 4.375467793009322e-01
7.276463000106739e-01 5.449411318773021e-01 4.166173602588606e-01
6.930969405307430e-01 6.035750712396947e-01 3.940986734371498e-01
6.477951425937902e-01 6.663383238278244e-01 3.692623612422694e-01
-6.797723570971230e-01 4.587002334151394e-01 5.722793359815805e-01
-6.394677896786889e-01 4.534853108686636e-01 6.208317153543328e-01
-6.145176879845557e-01 4.371072709417912e-01 6.567383381864766e-01
-6.057486727129573e-01 4.073440955929760e-01 6.834759200528070e-01
-6.122214571031184e-01 3.615754425754453e-01 7.031700269414971e-01
-6.313404981026824e-01 2.969033550571605e-01 7.164199698579445e-01
-6.313404981026829e-01 2.969033550571604e-01 7.164199698579446e-01
-6.406391610133417e-01 2.480061427091678e-01 7.266872907617429e-01
-6.538483702725795e-01 1.948781491898020e-01 7.310983625068853e-01
-6.702013467348396e-01 1.364527657115496e-01 7.295277908102453e-01
-6.885006527098831e-01 7.175781628530331e-02 7.216769824651681e-01
-7.071067811881102e-01 -1.051991826983567e-12 7.071067811849854e-01
8.858315352803766e-01 -5.473365020672253e-18 4.640069946701353e-01
8.446199868863098e-01 1.693351397907465e-01 5.078805845710370e-01
7.935484433400372e-01 3.042563412219693e-01 5.269809739438650e-01
7.460287818394615e-01 4.052300194171777e-01 5.284218845111197e-01
7.114089342114593e-01 4.748118313183906e-01 5.181226236753150e-01
6.955037554215046e-01 5.158110528641081e-01 5.002134383818616e-01
6.955037554215044e-01 5.158110528641081e-01 5.002134383818616e-01
6.679015914064244e-01 5.782163854825222e-01 4.685864656136509e-01
6.380883163198582e-01 6.338190583565839e-01 4.371689625763268e-01
6.068622480469199e-01 6.829465421899290e-01 4.065737724033095e-01
5.749380308637320e-01 7.259965986430611e-01 3.773263831555392e-01
5.429463044617828e-01 7.634130372248854e-01 3.498711835324095e-01
-6.831809432687705e-01 4.551351852892906e-01 5.710654619796902e-01
-6.420900007693282e-01 4.502653824452186e-01 6.204687875175552e-01
-6.165164124015083e-01 4.341846454018911e-01 6.568037811529467e-01
-6.073766407705210e-01 4.046497675074319e-01 6.836316127144056e-01
-6.137707678836146e-01 3.590073038805842e-01 7.031352645486870e-01
-6.330976239297448e-01 2.943138918051545e-01 7.159376590632849e-01
-6.330976239297446e-01 2.943138918051544e-01 7.159376590632849e-01
-6.419284976898210e-01 2.448699800894977e-01 7.266130309213144e-01
-6.546077233611545e-01 1.917256423141366e-01 7.312523549330683e-01
-6.704868420890344e-01 1.338253101733163e-01 7.297521366481161e-01
-6.884909174620737e-01 7.019052657257352e-02 7.218403885567062e-01
-7.071067811881102e-01 -1.051936315832336e-12 7.071067811849854e-01
8.858315352803766e-01 1.050956633099394e-16 4.640069946701353e-01
8.433304711156189e-01 1.740424256182919e-01 5.084318544041174e-01
7.905259938241271e-01 3.116421542786506e-01 5.272075689564196e-01
7.418135470168598e-01 4.134180768169678e-01 5.280134043972986e-01
7.071069549965739e-01 4.822226728147955e-01 5.171663639669812e-01
6.924504656864913e-01 5.210839985561382e-01 4.989827842915105e-01
6.924504656864913e-01 5.210839985561382e-01 4.989827842915104e-01
6.634832971422293e-01 5.844016319597726e-01 4.671880210108461e-01
6.325745078627227e-01 6.404477675934132e-01 4.355182533337125e-01
6.005929228818551e-01 6.896076753261162e-01 4.046348911247525e-01
5.683085084114137e-01 7.323409632228148e-01 3.751028563648566e-01
5.363935934520241e-01 7.691532833573027e-01 3.473976678164459e-01
-4.689331368580594e-01 6.289303310757427e-01 6.201196270151571e-01
-4.422200456463070e-01 6.089333483662578e-01 6.585146987547332e-01
-4.417315930520074e-01 5.822787433852655e-01 6.825134904904171e-01
-4.681257234700837e-01 5.452868504781502e-01 6.953564249514276e-01
-5.196872847811980e-01 4.926990297493331e-01 6.979776444276796e-01
-5.919851793475974e-01 4.181312101062530e-01 6.889991571604968e-01
-5.919851793475970e-01 4.181312101062528e-01 6.889991571604965e-01
-6.238991899082147e-01 3.187236383279627e-01 7.135580167042197e-01
-6.484106629005910e-01 2.266705733129700e-01 7.267627284270886e-01
-6.687606657770078e-01 1.429130413447539e-01 7.296129347284670e-01
-6.876410512133913e-01 6.753936736882582e-02 7.229026342057148e-01
-7.071067811881095e-01 -1.051880804681105e-12 7.071067811849852e-01
8.858315352803766e-01 -3.780028981850368e-18 4.640069946701354e-01
8.775576550217281e-01 5.992236869268007e-02 4.757119631069039e-01
8.682918333177426e-01 1.149985025484970e-01 4.825397772259991e-01
8.588459755005015e-01 1.651310210439721e-01 4.848869314134661e-01
8.499207731860081e-01 2.102960713936182e-01 4.831254926655272e-01
8.421076653043320e-01 2.505216641354021e-01 4.775914319107034e-01
8.421076653043320e-01 2.505216641354020e-01 4.775914319107035e-01
8.425553005276786e-01 2.699567875813941e-01 4.660728466575236e-01
8.359117706355056e-01 3.072184585748531e-01 4.548278030462795e-01
8.204051728447846e-01 3.616176311787382e-01 4.429086149424023e-01
7.934264314789400e-01 4.318646258231204e-01 4.289142604218835e-01
7.516715837021516e-01 5.157950815496444e-01 4.110295173146269e-01
-6.767758330777645e-01 4.635145346562637e-01 5.719517006918379e-01
-6.339800842852736e-01 4.585563130400626e-01 6.227321739726813e-01
-6.084487015984839e-01 4.417049307708922e-01 6.593079186964170e-01
-6.012197284363767e-01 4.105515076819043e-01 6.855525491740260e-01
-6.112566599149427e-01 3.621402439644935e-01 7.037185086460106e-01
-6.355579561214237e-01 2.931292619590960e-01 7.142417799275494e-01
-6.355579561214240e-01 2.931292619590958e-01 7.142417799275496e-01
-6.430050971229473e-01 2.444827550291359e-01 7.257910357446378e-01
-6.547909785146346e-01 1.919318121799381e-01 7.310341674157055e-01
-6.702404601360765e-01 1.343426089123599e-01 7.298834078311425e-01
-6.882165667016220e-01 7.066107146161882e-02 7.220560714358193e-01
-7.071067811881102e-01 -1.052047338134798e-12 7.071067811849854e-01
8.858315352803767e-01 -3.419004801049954e-17 4.640069946701351e-01
8.435986338280542e-01 1.731476268509639e-01 5.082924791095378e-01
7.912203065239378e-01 3.100284172245205e-01 5.271174509133847e-01
7.429577505103797e-01 4.112579585136438e-01 5.280915380080866e-01
7.086334907023624e-01 4.796500712172123e-01 5.174692116796014e-01
6.942351183622888e-01 5.181864973621511e-01 4.995201241031678e-01
6.942351183622888e-01 5.181864973621512e-01 4.995201241031680e-01
6.652648743915309e-01 5.812045240061942e-01 4.686405319384508e-01
6.344624349813954e-01 6.370307160112241e-01 4.377776666936151e-01
6.026835043159093e-01 6.860407023731607e-01 4.075791313509999e-01
5.706862497909839e-01 7.286832121806203e-01 3.786000271865231e-01
5.391327653802394e-01 7.654525232233064e-01 3.513094020724891e-01
        </DataArray>
        <DataArray type="Float64" Name="base_vector_2" NumberOfComponents="3" format="ascii">
-1.375472069240175e-01 6.274545622214895e-01 -7.664082059939342e-01
-2.647147099118407e-01 6.114412719080522e-01 -7.456981248224739e-01
-3.733778753180870e-01 5.797942461674530e-01 -7.241737321486235e-01
-4.631207475485860e-01 5.330824607361289e-01 -7.080552684964307e-01
-5.331060420299024e-01 4.722278909323906e-01 -7.019962727655742e-01
-5.815922790225410e-01 3.986231756723201e-01 -7.091191612121914e-01
-5.815922790225407e-01 3.986231756723203e-01 -7.091191612121911e-01
-6.419145270254429e-01 3.313694874069564e-01 -6.914766827662036e-01
-6.856371429478529e-01 2.556712712466864e-01 -6.815672448624630e-01
-7.118127682628140e-01 1.735940645542819e-01 -6.805789327400266e-01
-7.193606135173917e-01 8.747929794045872e-02 -6.891064360109594e-01
-7.071067811849852e-01 -4.358735594678365e-13 -7.071067811881099e-01
-8.376733080238373e-18 1.000000000000000e+00 -1.099339743058465e-17
-8.690046028378634e-02 9.951193025844834e-01 -4.675343437906238e-02
-1.653067390140067e-01 9.819735393197131e-01 -9.166051555861382e-02
-2.353362517159867e-01 9.627025222583974e-01 -1.334942031160513e-01
-2.973515015846704e-01 9.392708867990467e-01 -1.713250878215858e-01
-3.518668187245674e-01 9.134416315589635e-01 -2.044850302969658e-01
-3.518668187245676e-01 9.134416315589635e-01 -2.044850302969658e-01
-3.849272976647606e-01 8.952088804846183e-01 -2.245707813006430e-01
-4.248620237238189e-01 8.706384105154604e-01 -2.479536628735575e-01
-4.708699698293548e-01 8.384672545422726e-01 -2.743248704970922e-01
-5.218469669890192e-01 7.972930933913294e-01 -3.033141379409251e-01
-5.763325297766442e-01 7.456396402350887e-01 -3.344582814512764e-01
-1.444527220356916e-01 6.812658502228444e-01 -7.176421478819540e-01
-2.533026814607343e-01 6.381554178192506e-01 -7.270456755065251e-01
-3.544910614013685e-01 5.906973588173752e-01 -7.248535836103097e-01
-4.459401763051899e-01 5.375986193406438e-01 -7.156291523127951e-01
-5.259568408561832e-01 4.777993021303111e-01 -7.036172456956775e-01
-5.928930754820159e-01 4.106902900688111e-01 -6.926841175374764e-01
-5.928930754820160e-01 4.106902900688111e-01 -6.926841175374764e-01
-6.456969936739437e-01 3.381435563918298e-01 -6.846417513058319e-01
-6.845422373220366e-01 2.592499075941487e-01 -6.813159404670979e-01
-7.084340551584093e-01 1.754093938261256e-01 -6.836320165479112e-01
-7.163145163721513e-01 8.831544179577822e-02 -6.921660901654660e-01
-7.071067811849854e-01 -4.360956040727615e-13 -7.071067811881100e-01
-7.789529532425584e-18 1.000000000000000e+00 2.666678750023818e-17
-1.479113839186796e-01 9.855440417923947e-01 -8.261455195527898e-02
-2.621501935239828e-01 9.524717620798656e-01 -1.551606215372129e-01
-3.455424155113931e-01 9.139079871992632e-01 -2.130085209937458e-01
-4.021020334812659e-01 8.796535280021314e-01 -2.540150100754568e-01
-4.354227722396583e-01 8.563459063171823e-01 -2.776305065170871e-01
-4.354227722396582e-01 8.563459063171823e-01 -2.776305065170871e-01
-4.860893652279890e-01 8.156786928341211e-01 -3.136644689292531e-01
-5.316713554562031e-01 7.733862536090632e-01 -3.452524764804755e-01
-5.722952914876624e-01 7.304396350088104e-01 -3.727412493261879e-01
-6.081586446249435e-01 6.876966363129926e-01 -3.965052324645256e-01
-6.395112568461133e-01 6.459052912758245e-01 -4.169312977805779e-01
-1.455357859140193e-01 6.814666656852646e-01 -7.172325414941773e-01
-2.545193813052617e-01 6.382375891236308e-01 -7.265484597531277e-01
-3.556930874132254e-01 5.906327165209144e-01 -7.243172107174954e-01
-4.469738579224327e-01 5.373427802746825e-01 -7.151762767462377e-01
-5.266620249449149e-01 4.773018253951128e-01 -7.034273800154606e-01
-5.930921059000436e-01 4.099101480643639e-01 -6.929757747806939e-01
-5.930921059000436e-01 4.099101480643641e-01 -6.929757747806938e-01
-6.461233720971652e-01 3.374990718621858e-01 -6.845574954099558e-01
-6.850093960713277e-01 2.587244705782979e-01 -6.810460892024668e-01
-7.088090853990014e-01 1.750254756939051e-01 -6.833416153827846e-01
-7.165177292628998e-01 8.811036245282022e-02 -6.919818694737386e-01
-7.071067811849854e-01 -4.363176486776865e-13 -7.071067811881100e-01
-1.017799396716649e-16 1.000000000000000e+00 -3.218870245794948e-17
-1.519776352367759e-01 9.847222989177489e-01 -8.499877882641142e-02
-2.683836878475384e-01 9.500704425097549e-01 -1.591739625902225e-01
-3.523253390463587e-01 9.102101658596897e-01 -2.176793730042986e-01
-4.081608836080164e-01 8.755882567665098e-01 -2.583600156852990e-01
-4.397007762349202e-01 8.531391189923085e-01 -2.807434256103540e-01
-4.397007762349202e-01 8.531391189923085e-01 -2.807434256103539e-01
-4.910749348778040e-01 8.112455414425468e-01 -3.173737226431165e-01
-5.369555556327447e-01 7.678935723875060e-01 -3.493110258223815e-01
-5.775307482596712e-01 7.241462461570181e-01 -3.769223381431830e-01
-6.130611764277425e-01 6.809342499701156e-01 -4.006052186063841e-01
-6.438581489470385e-01 6.390611329791769e-01 -4.207701894738552e-01
-9.748048135942933e-02 6.609585757887824e-01 -7.440640542622646e-01
-2.121776203946730e-01 6.423410684227389e-01 -7.364635830923270e-01
-3.164373558384734e-01 6.107433382508993e-01 -7.258512069371402e-01
-4.085672010058278e-01 5.641815968968318e-01 -7.174761096964863e-01
-4.859351917478874e-01 5.014868644848691e-01 -7.158057796428293e-01
-5.445618149391914e-01 4.227058046798244e-01 -7.244116456822850e-01
-5.445618149391913e-01 4.227058046798247e-01 -7.244116456822848e-01
-6.193215964301942e-01 3.552370552330270e-01 -7.001766882612724e-01
-6.731399075191521e-01 2.752009886259729e-01 -6.864015448441202e-01
-7.056685726660976e-01 1.869530901652967e-01 -6.834328113494690e-01
-7.169254381816484e-01 9.419990241794762e-02 -6.907563206171196e-01
-7.071067811849852e-01 -4.356515148629114e-13 -7.071067811881097e-01
1.707701707928830e-18 1.000000000000000e+00 4.886333572895125e-18
-5.291550451394894e-02 9.982029184422492e-01 -2.812264204179071e-02
-1.011784349259010e-01 9.933647498071417e-01 -5.467538885586340e-02
-1.448801681253699e-01 9.862692402009438e-01 -7.926362796022990e-02
-1.841564984334844e-01 9.776341849014715e-01 -1.015764962811458e-01
-2.191678011121417e-01 9.681078698617096e-01 -1.213780345346387e-01
-2.191678011121417e-01 9.681078698617096e-01 -1.213780345346387e-01
-2.360592807666294e-01 9.628723828056558e-01 -1.309686618779484e-01
-2.687766361893321e-01 9.516365837659085e-01 -1.488184540878530e-01
-3.166834600023861e-01 9.323217071862261e-01 -1.746076185917388e-01
-3.785291056024025e-01 9.019346595882674e-01 -2.079172576897876e-01
-4.522083211446400e-01 8.567117677031857e-01 -2.480979269692294e-01
-1.444413784932290e-01 6.782054881171506e-01 -7.205373023423237e-01
-2.546459909221462e-01 6.365540307944959e-01 -7.279796598714542e-01
-3.564143104378967e-01 5.901926497063452e-01 -7.243213896798038e-01
-4.476792499136205e-01 5.375888233906239e-01 -7.145498906040522e-01
-5.266958579285119e-01 4.775405514342300e-01 -7.032399981349470e-01
-5.916407709346088e-01 4.094327819082909e-01 -6.944969368303502e-01
-5.916407709346089e-01 4.094327819082910e-01 -6.944969368303503e-01
-6.454206816528119e-01 3.371751517062700e-01 -6.853795012740563e-01
-6.848427140567865e-01 2.585204091459454e-01 -6.812911676062947e-01
-7.089585521402154e-01 1.749023293336309e-01 -6.832180812456005e-01
-7.167373440537168e-01 8.804255246220416e-02 -6.917630292193742e-01
-7.071067811849854e-01 -4.360956040727615e-13 -7.071067811881100e-01
3.750577164877400e-17 1.000000000000000e+00 2.082409834527944e-18
-1.512046743286506e-01 9.848803345392441e-01 -8.454509506194585e-02
-2.670278952276083e-01 9.506006711738071e-01 -1.582860294979345e-01
-3.505507008293511e-01 9.111942616110339e-01 -2.164237134769976e-01
-4.060795188704879e-01 8.770084091421780e-01 -2.568183689844226e-01
-4.373715714633953e-01 8.549083551297001e-01 -2.789942881226614e-01
-4.373715714633954e-01 8.549083551297001e-01 -2.789942881226614e-01
-4.885267669456089e-01 8.135335759992867e-01 -3.154436854645909e-01
-5.342114086586309e-01 7.707197658818248e-01 -3.472883720167240e-01
-5.746213178060591e-01 7.275161228763132e-01 -3.748741549878377e-01
-6.100220477561039e-01 6.848420160985487e-01 -3.985781156028578e-01
-6.407274382448981e-01 6.434920027746717e-01 -4.187915856905110e-01
        </DataArray>
        <DataArray type="Float64" Name="base_vector_3" NumberOfComponents="3" format="ascii">
-7.937319303308460e-01 -5.326867665105696e-01 -2.936569964393561e-01
-7.823202133342680e-01 -5.882933367764287e-01 -2.046607771730613e-01
-7.477239183851885e-01 -6.501411669584785e-01 -1.350014996234064e-01
-6.935398745434316e-01 -7.153889229953176e-01 -8.497723974030413e-02
-6.219387006001276e-01 -7.812543019644909e-01 -5.323502942425717e-02
-5.337647193906179e-01 -8.448174395173742e-01 -3.713109507088741e-02
-5.337647193906176e-01 -8.448174395173739e-01 -3.713109507088697e-02
-4.421818994266922e-01 -8.967190655612851e-01 -1.923760063777680e-02
-3.418398911988839e-01 -9.397185947434912e-01 -8.628527015257292e-03
-2.338794523548856e-01 -9.722597284382618e-01 -3.379677993055719e-03
-1.194848815655176e-01 -9.928351615838750e-01 -1.305756483924947e-03
1.052047338134798e-12 -1.000000000000000e+00 -4.356515148629114e-13
-4.640069946701352e-01 5.851435382166839e-18 8.858315352803766e-01
-4.868226084421555e-01 -1.473192019005674e-03 8.734996151200359e-01
-5.035242845679834e-01 -4.118142026819725e-03 8.639712586403250e-01
-5.143080691904457e-01 -6.807477714609905e-03 8.575784909923760e-01
-5.194134838844047e-01 -8.575285103136279e-03 8.544800157080710e-01
-5.190744598217257e-01 -8.620888814359101e-03 8.546855476939071e-01
-5.190744598217258e-01 -8.620888814359129e-03 8.546855476939071e-01
-5.096741063257876e-01 -3.323813558453736e-03 8.603611204630521e-01
-5.029191356583530e-01 7.389165633442524e-04 8.643331516209288e-01
-4.988109196816755e-01 3.438873162641187e-03 8.667040097736322e-01
-4.972850028618249e-01 4.566903599002387e-03 8.675752240124381e-01
-4.981990248416233e-01 3.842539318349436e-03 8.670541889284905e-01
-7.190569891344505e-01 -5.705006022652751e-01 -3.968451955005345e-01
-7.258916568801803e-01 -6.221806293467269e-01 -2.932107892582692e-01
-7.047723735651439e-01 -6.782432188942228e-01 -2.080433548166256e-01
-6.589430208017889e-01 -7.382807814568750e-01 -1.439985523123035e-01
-5.903848651677297e-01 -8.006066613575975e-01 -1.023459074449149e-01
-4.998869637237333e-01 -8.620799750597373e-01 -8.325346899720931e-02
-4.998869637237334e-01 -8.620799750597375e-01 -8.325346899720976e-02
-4.155199847619281e-01 -9.078281161371934e-01 -5.649118350894877e-02
-3.223107724138808e-01 -9.459450260880824e-01 -3.610780532218616e-02
-2.212495069522641e-01 -9.749934293559216e-01 -2.089182582159799e-02
-1.134035486772658e-01 -9.935045035340211e-01 -9.404073852426809e-03
1.051991826983567e-12 -1.000000000000000e+00 -4.360956040727615e-13
-4.640069946701353e-01 -2.723667750056661e-17 8.858315352803766e-01
-5.145282307701211e-01 -5.343418340243968e-03 8.574567905270856e-01
-5.491430998455159e-01 -1.502069461431314e-02 8.355933428560578e-01
-5.692464279639189e-01 -2.368168694466515e-02 8.218258221507608e-01
-5.763777259699986e-01 -2.762961298099890e-02 8.167161817254349e-01
-5.715606141169237e-01 -2.471126214955299e-02 8.201876723733790e-01
-5.715606141169237e-01 -2.471126214955308e-02 8.201876723733790e-01
-5.635819312300712e-01 -1.827789965906726e-02 8.258579328038427e-01
-5.569280656991997e-01 -1.212864347364975e-02 8.304721703007494e-01
-5.515399452773028e-01 -6.477663082882695e-03 8.341233293970949e-01
-5.473475346016335e-01 -1.508364180784066e-03 8.369040573464868e-01
-5.442744370613024e-01 2.624747029371488e-03 8.389031218589154e-01
-7.155998419317759e-01 -5.731100650586159e-01 -3.993265825808836e-01
-7.231461231673932e-01 -6.244308330000340e-01 -2.952047075282722e-01
-7.024172127774356e-01 -6.801740129351895e-01 -2.096982864060162e-01
-6.567404255718196e-01 -7.399468238615905e-01 -1.455015851353165e-01
-5.881433124438975e-01 -8.020578054198383e-01 -1.038783942532464e-01
-4.974225090338836e-01 -8.633382903615219e-01 -8.495789487788241e-02
-4.974225090338836e-01 -8.633382903615218e-01 -8.495789487788241e-02
-4.128588038100656e-01 -9.089186263594407e-01 -5.843405491140996e-02
-3.197668772870654e-01 -9.467327639852816e-01 -3.802917021008545e-02
-2.191736184884165e-01 -9.754265063115407e-01 -2.249568277595193e-02
-1.121721900658514e-01 -9.936346682799958e-01 -1.037042756751028e-02
1.052158360437261e-12 -1.000000000000000e+00 -4.356515148629114e-13
-4.640069946701353e-01 -1.871283620774829e-17 8.858315352803766e-01
-5.154575781533780e-01 -5.588210719456643e-03 8.568968765407009e-01