<?xml version="1.0" ?> 
<!-- 
# vtk DataFile Version 3.0
-->
<VTKFile type="UnstructuredGrid" version="0.1" compressor="vtkZLibDataCompressor" byte_order="LittleEndian">
  <UnstructuredGrid>
    <FieldData>
      <DataArray type="Float64" Name="TIME" NumberOfTuples="1" format="ascii">
1.000000000000000e+00 
      </DataArray>
    </FieldData>

    <Piece NumberOfPoints="8829" NumberOfCells="327" >
      <Points>
        <DataArray type="Float64" NumberOfComponents="3" format="ascii">
-3.000000000000000e-01 -5.000000000000000e-01 1.000000000000000e-01
-3.000000000000000e-01 -5.000000000000000e-01 6.938893903907228e-18
-3.000000000000000e-01 -3.999999999999999e-01 0.000000000000000e+00
-3.000000000000000e-01 -4.000000000000001e-01 9.999999999999998e-02
-2.000000000000000e-01 -5.000000000000000e-01 9.999999999999995e-02
-2.000000000000000e-01 -5.000000000000000e-01 -1.387778780781446e-17
-2.000000000000000e-01 -3.999999999999999e-01 0.000000000000000e+00
-2.000000000000000e-01 -4.000000000000001e-01 9.999999999999992e-02
-3.000000000000000e-01 -5.000000000000000e-01 5.000000000000000e-02
-3.000000000000000e-01 -4.500000000000000e-01 3.469446951953614e-18
-3.000000000000000e-01 -4.000000000000000e-01 4.999999999999999e-02
-3.000000000000000e-01 -4.500000000000001e-01 9.999999999999999e-02
-2.000000000000000e-01 -5.000000000000000e-01 4.999999999999997e-02
-2.000000000000000e-01 -4.500000000000000e-01 -6.938893903907228e-18
-2.000000000000000e-01 -4.000000000000000e-01 4.999999999999996e-02
-2.000000000000000e-01 -4.500000000000001e-01 9.999999999999994e-02
-2.500000000000000e-01 -5.000000000000000e-01 9.999999999999998e-02
-2.500000000000000e-01 -5.000000000000000e-01 -3.469446951953614e-18
-2.500000000000000e-01 -3.999999999999999e-01 0.000000000000000e+00
-2.500000000000000e-01 -4.000000000000001e-01 9.999999999999995e-02
-2.500000000000000e-01 -4.500000000000001e-01 9.999999999999995e-02
-2.500000000000000e-01 -4.500000000000000e-01 -1.734723475976807e-18
-2.500000000000000e-01 -5.000000000000000e-01 4.999999999999999e-02
-2.500000000000000e-01 -4.000000000000000e-01 4.999999999999998e-02
-3.000000000000000e-01 -4.500000000000001e-01 5.000000000000000e-02
-2.000000000000000e-01 -4.500000000000001e-01 4.999999999999996e-02
-2.500000000000000e-01 -4.500000000000001e-01 4.999999999999997e-02
-3.000000000000000e-01 -5.000000000000000e-01 6.938893903907228e-18
-3.000000000000000e-01 -5.000000000000000e-01 -1.000000000000001e-01
-3.000000000000000e-01 -4.000000000000001e-01 -1.000000000000001e-01
-3.000000000000000e-01 -3.999999999999999e-01 0.000000000000000e+00
-2.000000000000000e-01 -5.000000000000000e-01 -1.387778780781446e-17
-2.000000000000000e-01 -5.000000000000000e-01 -1.000000000000001e-01
-2.000000000000000e-01 -4.000000000000001e-01 -1.000000000000001e-01
-2.000000000000000e-01 -3.999999999999999e-01 0.000000000000000e+00
-3.000000000000000e-01 -5.000000000000000e-01 -5.000000000000004e-02
-3.000000000000000e-01 -4.500000000000001e-01 -1.000000000000001e-01
-3.000000000000000e-01 -4.000000000000000e-01 -5.000000000000004e-02
-3.000000000000000e-01 -4.500000000000000e-01 3.469446951953614e-18
-2.000000000000000e-01 -5.000000000000000e-01 -5.000000000000006e-02
-2.000000000000000e-01 -4.500000000000001e-01 -1.000000000000001e-01
-2.000000000000000e-01 -4.000000000000000e-01 -5.000000000000004e-02
-2.000000000000000e-01 -4.500000000000000e-01 -6.938893903907228e-18
-2.500000000000000e-01 -5.000000000000000e-01 -3.469446951953614e-18
-2.500000000000000e-01 -5.000000000000000e-01 -1.000000000000001e-01
-2.500000000000000e-01 -4.000000000000001e-01 -1.000000000000001e-01
-2.500000000000000e-01 -3.999999999999999e-01 0.000000000000000e+00
-2.500000000000000e-01 -4.500000000000000e-01 -1.734723475976807e-18
-2.500000000000000e-01 -4.500000000000001e-01 -1.000000000000001e-01
-2.500000000000000e-01 -5.000000000000000e-01 -5.000000000000004e-02
-2.500000000000000e-01 -4.000000000000000e-01 -5.000000000000004e-02
-3.000000000000000e-01 -4.500000000000000e-01 -5.000000000000004e-02
-2.000000000000000e-01 -4.500000000000000e-01 -5.000000000000004e-02
-2.500000000000000e-01 -4.500000000000000e-01 -5.000000000000004e-02
-3.000000000000000e-01 -5.000000000000000e-01 -1.000000000000001e-01
-3.000000000000001e-01 -5.000000000000000e-01 -2.000000000000001e-01
-3.000000000000000e-01 -4.000000000000001e-01 -2.000000000000001e-01
-3.000000000000000e-01 -4.000000000000001e-01 -1.000000000000001e-01
-2.000000000000000e-01 -5.000000000000000e-01 -1.000000000000001e-01
-2.000000000000000e-01 -5.000000000000000e-01 -2.000000000000001e-01
-2.000000000000000e-01 -4.000000000000000e-01 -2.000000000000001e-01
-2.000000000000000e-01 -4.000000000000001e-01 -1.000000000000001e-01
-3.000000000000000e-01 -5.000000000000000e-01 -1.500000000000001e-01
-3.000000000000000e-01 -4.500000000000001e-01 -2.000000000000001e-01
-3.000000000000000e-01 -4.000000000000001e-01 -1.500000000000001e-01
-3.000000000000000e-01 -4.500000000000001e-01 -1.000000000000001e-01
-2.000000000000000e-01 -5.000000000000000e-01 -1.500000000000001e-01
-2.000000000000000e-01 -4.500000000000000e-01 -2.000000000000001e-01
-2.000000000000000e-01 -4.000000000000000e-01 -1.500000000000001e-01
-2.000000000000000e-01 -4.500000000000001e-01 -1.000000000000001e-01
-2.500000000000000e-01 -5.000000000000000e-01 -1.000000000000001e-01
-2.500000000000001e-01 -5.000000000000000e-01 -2.000000000000001e-01
-2.500000000000000e-01 -4.000000000000000e-01 -2.000000000000001e-01
-2.500000000000000e-01 -4.000000000000001e-01 -1.000000000000001e-01
-2.500000000000000e-01 -4.500000000000001e-01 -1.000000000000001e-01
-2.500000000000000e-01 -4.500000000000000e-01 -2.000000000000001e-01
-2.499999999999999e-01 -5.000000000000000e-01 -1.500000000000001e-01
-2.500000000000000e-01 -4.000000000000001e-01 -1.500000000000001e-01
-3.000000000000000e-01 -4.500000000000001e-01 -1.500000000000001e-01
-2.000000000000000e-01 -4.500000000000001e-01 -1.500000000000001e-01
-2.500000000000000e-01 -4.500000000000001e-01 -1.500000000000000e-01
-3.000000000000000e-01 -3.999999999999999e-01 0.000000000000000e+00
-3.000000000000000e-01 -4.000000000000001e-01 -1.000000000000001e-01
-3.000000000000000e-01 -3.000000000000000e-01 -1.000000000000001e-01
-3.000000000000000e-01 -3.000000000000000e-01 6.938893903907227e-19
-2.000000000000000e-01 -3.999999999999999e-01 0.000000000000000e+00
-2.000000000000000e-01 -4.000000000000001e-01 -1.000000000000001e-01
-2.000000000000000e-01 -3.000000000000000e-01 -1.000000000000001e-01
-2.000000000000000e-01 -3.000000000000000e-01 1.040834085586084e-18
-3.000000000000000e-01 -4.000000000000000e-01 -5.000000000000004e-02
-3.000000000000000e-01 -3.500000000000001e-01 -1.000000000000001e-01
-3.000000000000000e-01 -3.000000000000000e-01 -5.000000000000004e-02
-3.000000000000000e-01 -3.500000000000000e-01 3.469446951953613e-19
-2.000000000000000e-01 -4.000000000000000e-01 -5.000000000000004e-02
-2.000000000000000e-01 -3.500000000000001e-01 -1.000000000000001e-01
-2.000000000000000e-01 -3.000000000000000e-01 -5.000000000000004e-02
-2.000000000000000e-01 -3.500000000000000e-01 5.204170427930421e-19
-2.500000000000000e-01 -3.999999999999999e-01 0.000000000000000e+00
-2.500000000000000e-01 -4.000000000000001e-01 -1.000000000000001e-01
-2.500000000000000e-01 -3.000000000000000e-01 -1.000000000000001e-01
-2.500000000000000e-01 -3.000000000000000e-01 8.673617379884035e-19
-2.500000000000000e-01 -3.500000000000000e-01 4.336808689942018e-19
-2.500000000000000e-01 -3.500000000000001e-01 -1.000000000000001e-01
-2.500000000000000e-01 -4.000000000000000e-01 -5.000000000000004e-02
-2.500000000000000e-01 -3.000000000000000e-01 -5.000000000000004e-02
-3.000000000000000e-01 -3.500000000000001e-01 -5.000000000000004e-02
-2.000000000000000e-01 -3.500000000000001e-01 -5.000000000000004e-02
-2.500000000000000e-01 -3.500000000000001e-01 -5.000000000000004e-02
-3.000000000000000e-01 -3.000000000000000e-01 -1.000000000000001e-01
-3.000000000000001e-01 -3.000000000000000e-01 -2.000000000000001e-01
-3.000000000000000e-01 -2.000000000000000e-01 -2.000000000000001e-01
-3.000000000000000e-01 -2.000000000000001e-01 -1.000000000000001e-01
-2.000000000000000e-01 -3.000000000000000e-01 -1.000000000000001e-01
-2.000000000000000e-01 -3.000000000000000e-01 -2.000000000000001e-01
-2.000000000000000e-01 -2.000000000000000e-01 -2.000000000000001e-01
-2.000000000000000e-01 -2.000000000000000e-01 -1.000000000000001e-01
-3.000000000000000e-01 -3.000000000000000e-01 -1.500000000000001e-01
-3.000000000000000e-01 -2.500000000000000e-01 -2.000000000000001e-01
-3.000000000000000e-01 -2.000000000000000e-01 -1.500000000000001e-01
-3.000000000000000e-01 -2.500000000000001e-01 -1.000000000000001e-01
-2.000000000000000e-01 -3.000000000000000e-01 -1.500000000000001e-01
-2.000000000000000e-01 -2.500000000000000e-01 -2.000000000000001e-01
-2.000000000000000e-01 -2.000000000000000e-01 -1.500000000000001e-01
-2.000000000000000e-01 -2.500000000000000e-01 -1.000000000000001e-01
-2.500000000000000e-01 -3.000000000000000e-01 -1.000000000000001e-01
-2.500000000000001e-01 -3.000000000000000e-01 -2.000000000000001e-01
-2.500000000000000e-01 -2.000000000000000e-01 -2.000000000000001e-01
-2.500000000000000e-01 -2.000000000000000e-01 -1.000000000000001e-01
-2.500000000000000e-01 -2.500000000000000e-01 -1.000000000000001e-01
-2.500000000000000e-01 -2.500000000000000e-01 -2.000000000000000e-01
-2.500000000000000e-01 -3.000000000000000e-01 -1.500000000000001e-01
-2.500000000000000e-01 -1.999999999999999e-01 -1.500000000000001e-01
-3.000000000000000e-01 -2.500000000000000e-01 -1.500000000000001e-01
-2.000000000000000e-01 -2.500000000000000e-01 -1.500000000000001e-01
-2.500000000000000e-01 -2.500000000000000e-01 -1.500000000000001e-01
-2.000000000000000e-01 -5.000000000000000e-01 9.999999999999995e-02
-2.000000000000000e-01 -5.000000000000000e-01 -1.387778780781446e-17
-2.000000000000000e-01 -3.999999999999999e-01 0.000000000000000e+00
[...]
  <PointData>
        <DataArray type="Float64" Name="acceleration" NumberOfComponents="3" format="ascii">
0.000000000000000e+00 0.000000000000000e+00 0.000000000000000e+00
0.000000000000000e+00 0.000000000000000e+00 0.000000000000000e+00
0.000000000000000e+00 0.000000000000000e+00 0.000000000000000e+00
0.000000000000000e+00 0.000000000000000e+00 0.000000000000000e+00
0.000000000000000e+00 0.000000000000000e+00 0.000000000000000e+00
0.000000000000000e+00 0.000000000000000e+00 0.000000000000000e+00
0.000000000000000e+00 0.000000000000000e+00 0.000000000000000e+00
0.000000000000000e+00 0.000000000000000e+00 0.000000000000000e+00
0.000000000000000e+00 0.000000000000000e+00 0.000000000000000e+00
0.000000000000000e+00 0.000000000000000e+00 0.000000000000000e+00
0.000000000000000e+00 0.000000000000000e+00 0.000000000000000e+00
0.000000000000000e+00 0.000000000000000e+00 0.000000000000000e+00
0.000000000000000e+00 0.000000000000000e+00 0.000000000000000e+00
0.000000000000000e+00 0.000000000000000e+00 0.000000000000000e+00
0.000000000000000e+00 0.000000000000000e+00 0.000000000000000e+00
0.000000000000000e+00 0.000000000000000e+00 0.000000000000000e+00
0.000000000000000e+00 0.000000000000000e+00 0.000000000000000e+00
0.000000000000000e+00 0.000000000000000e+00 0.000000000000000e+00
0.000000000000000e+00 0.000000000000000e+00 0.000000000000000e+00
0.000000000000000e+00 0.000000000000000e+00 0.000000000000000e+00
0.000000000000000e+00 0.000000000000000e+00 0.000000000000000e+00
0.000000000000000e+00 0.000000000000000e+00 0.000000000000000e+00
0.000000000000000e+00 0.000000000000000e+00 0.000000000000000e+00
0.000000000000000e+00 0.000000000000000e+00 0.000000000000000e+00
0.000000000000000e+00 0.000000000000000e+00 0.000000000000000e+00
0.000000000000000e+00 0.000000000000000e+00 0.000000000000000e+00
0.000000000000000e+00 0.000000000000000e+00 0.000000000000000e+00
0.000000000000000e+00 0.000000000000000e+00 0.000000000000000e+00
0.000000000000000e+00 0.000000000000000e+00 0.000000000000000e+00
0.000000000000000e+00 0.000000000000000e+00 0.000000000000000e+00
0.000000000000000e+00 0.000000000000000e+00 0.000000000000000e+00
0.000000000000000e+00 0.000000000000000e+00 0.000000000000000e+00
0.000000000000000e+00 0.000000000000000e+00 0.000000000000000e+00
0.000000000000000e+00 0.000000000000000e+00 0.000000000000000e+00
0.000000000000000e+00 0.000000000000000e+00 0.000000000000000e+00
0.000000000000000e+00 0.000000000000000e+00 0.000000000000000e+00
0.000000000000000e+00 0.000000000000000e+00 0.000000000000000e+00
0.000000000000000e+00 0.000000000000000e+00 0.000000000000000e+00
0.000000000000000e+00 0.000000000000000e+00 0.000000000000000e+00
0.000000000000000e+00 0.000000000000000e+00 0.000000000000000e+00
0.000000000000000e+00 0.000000000000000e+00 0.000000000000000e+00
0.000000000000000e+00 0.000000000000000e+00 0.000000000000000e+00
0.000000000000000e+00 0.000000000000000e+00 0.000000000000000e+00
0.000000000000000e+00 0.000000000000000e+00 0.000000000000000e+00
0.000000000000000e+00 0.000000000000000e+00 0.000000000000000e+00
0.000000000000000e+00 0.000000000000000e+00 0.000000000000000e+00
0.000000000000000e+00 0.000000000000000e+00 0.000000000000000e+00
0.000000000000000e+00 0.000000000000000e+00 0.000000000000000e+00
0.000000000000000e+00 0.000000000000000e+00 0.000000000000000e+00
0.000000000000000e+00 0.000000000000000e+00 0.000000000000000e+00
0.000000000000000e+00 0.000000000000000e+00 0.000000000000000e+00
0.000000000000000e+00 0.000000000000000e+00 0.000000000000000e+00
0.000000000000000e+00 0.000000000000000e+00 0.000000000000000e+00
0.000000000000000e+00 0.000000000000000e+00 0.000000000000000e+00
0.000000000000000e+00 0.000000000000000e+00 0.000000000000000e+00
0.000000000000000e+00 0.000000000000000e+00 0.000000000000000e+00
0.000000000000000e+00 0.000000000000000e+00 0.000000000000000e+00
0.000000000000000e+00 0.000000000000000e+00 0.000000000000000e+00
0.000000000000000e+00 0.000000000000000e+00 0.000000000000000e+00
0.000000000000000e+00 0.000000000000000e+00 0.000000000000000e+00
0.000000000000000e+00 0.000000000000000e+00 0.000000000000000e+00
0.000000000000000e+00 0.000000000000000e+00 0.000000000000000e+00
0.000000000000000e+00 0.000000000000000e+00 0.000000000000000e+00
0.000000000000000e+00 0.000000000000000e+00 0.000000000000000e+00
0.000000000000000e+00 0.000000000000000e+00 0.000000000000000e+00
0.000000000000000e+00 0.000000000000000e+00 0.000000000000000e+00
0.000000000000000e+00 0.000000000000000e+00 0.000000000000000e+00
0.000000000000000e+00 0.000000000000000e+00 0.000000000000000e+00
0.000000000000000e+00 0.000000000000000e+00 0.000000000000000e+00
0.000000000000000e+00 0.000000000000000e+00 0.000000000000000e+00
0.000000000000000e+00 0.000000000000000e+00 0.000000000000000e+00
0.000000000000000e+00 0.000000000000000e+00 0.000000000000000e+00
0.000000000000000e+00 0.000000000000000e+00 0.000000000000000e+00
0.000000000000000e+00 0.000000000000000e+00 0.000000000000000e+00
0.000000000000000e+00 0.000000000000000e+00 0.000000000000000e+00
0.000000000000000e+00 0.000000000000000e+00 0.000000000000000e+00
0.000000000000000e+00 0.000000000000000e+00 0.000000000000000e+00
0.000000000000000e+00 0.000000000000000e+00 0.000000000000000e+00
0.000000000000000e+00 0.000000000000000e+00 0.000000000000000e+00
0.000000000000000e+00 0.000000000000000e+00 0.000000000000000e+00
0.000000000000000e+00 0.000000000000000e+00 0.000000000000000e+00
0.000000000000000e+00 0.000000000000000e+00 0.000000000000000e+00
0.000000000000000e+00 0.000000000000000e+00 0.000000000000000e+00
0.000000000000000e+00 0.000000000000000e+00 0.000000000000000e+00
0.000000000000000e+00 0.000000000000000e+00 0.000000000000000e+00
0.000000000000000e+00 0.000000000000000e+00 0.000000000000000e+00
0.000000000000000e+00 0.000000000000000e+00 0.000000000000000e+00
0.000000000000000e+00 0.000000000000000e+00 0.000000000000000e+00
0.000000000000000e+00 0.000000000000000e+00 0.000000000000000e+00
0.000000000000000e+00 0.000000000000000e+00 0.000000000000000e+00
0.000000000000000e+00 0.000000000000000e+00 0.000000000000000e+00
0.000000000000000e+00 0.000000000000000e+00 0.000000000000000e+00
0.000000000000000e+00 0.000000000000000e+00 0.000000000000000e+00
0.000000000000000e+00 0.000000000000000e+00 0.000000000000000e+00
0.000000000000000e+00 0.000000000000000e+00 0.000000000000000e+00
0.000000000000000e+00 0.000000000000000e+00 0.000000000000000e+00
0.000000000000000e+00 0.000000000000000e+00 0.000000000000000e+00
0.000000000000000e+00 0.000000000000000e+00 0.000000000000000e+00
0.000000000000000e+00 0.000000000000000e+00 0.000000000000000e+00
0.000000000000000e+00 0.000000000000000e+00 0.000000000000000e+00
0.000000000000000e+00 0.000000000000000e+00 0.000000000000000e+00
0.000000000000000e+00 0.000000000000000e+00 0.000000000000000e+00
0.000000000000000e+00 0.000000000000000e+00 0.000000000000000e+00
0.000000000000000e+00 0.000000000000000e+00 0.000000000000000e+00
0.000000000000000e+00 0.000000000000000e+00 0.000000000000000e+00
0.000000000000000e+00 0.000000000000000e+00 0.000000000000000e+00
0.000000000000000e+00 0.000000000000000e+00 0.000000000000000e+00
0.000000000000000e+00 0.000000000000000e+00 0.000000000000000e+00
0.000000000000000e+00 0.000000000000000e+00 0.000000000000000e+00
0.000000000000000e+00 0.000000000000000e+00 0.000000000000000e+00
0.000000000000000e+00 0.000000000000000e+00 0.000000000000000e+00
0.000000000000000e+00 0.000000000000000e+00 0.000000000000000e+00
0.000000000000000e+00 0.000000000000000e+00 0.000000000000000e+00
0.000000000000000e+00 0.000000000000000e+00 0.000000000000000e+00
0.000000000000000e+00 0.000000000000000e+00 0.000000000000000e+00
0.000000000000000e+00 0.000000000000000e+00 0.000000000000000e+00
0.000000000000000e+00 0.000000000000000e+00 0.000000000000000e+00
0.000000000000000e+00 0.000000000000000e+00 0.000000000000000e+00
0.000000000000000e+00 0.000000000000000e+00 0.000000000000000e+00
0.000000000000000e+00 0.000000000000000e+00 0.000000000000000e+00
0.000000000000000e+00 0.000000000000000e+00 0.000000000000000e+00
0.000000000000000e+00 0.000000000000000e+00 0.000000000000000e+00
0.000000000000000e+00 0.000000000000000e+00 0.000000000000000e+00
0.000000000000000e+00 0.000000000000000e+00 0.000000000000000e+00
0.000000000000000e+00 0.000000000000000e+00 0.000000000000000e+00
0.000000000000000e+00 0.000000000000000e+00 0.000000000000000e+00
0.000000000000000e+00 0.000000000000000e+00 0.000000000000000e+00
0.000000000000000e+00 0.000000000000000e+00 0.000000000000000e+00
0.000000000000000e+00 0.000000000000000e+00 0.000000000000000e+00
0.000000000000000e+00 0.000000000000000e+00 0.000000000000000e+00
0.000000000000000e+00 0.000000000000000e+00 0.000000000000000e+00
0.000000000000000e+00 0.000000000000000e+00 0.000000000000000e+00
0.000000000000000e+00 0.000000000000000e+00 0.000000000000000e+00
0.000000000000000e+00 0.000000000000000e+00 0.000000000000000e+00
0.000000000000000e+00 0.000000000000000e+00 0.000000000000000e+00
0.000000000000000e+00 0.000000000000000e+00 0.000000000000000e+00
0.000000000000000e+00 0.000000000000000e+00 0.000000000000000e+00
0.000000000000000e+00 0.000000000000000e+00 0.000000000000000e+00
0.000000000000000e+00 0.000000000000000e+00 0.000000000000000e+00
0.000000000000000e+00 0.000000000000000e+00 0.000000000000000e+00
0.000000000000000e+00 0.000000000000000e+00 0.000000000000000e+00
0.000000000000000e+00 0.000000000000000e+00 0.000000000000000e+00
0.000000000000000e+00 0.000000000000000e+00 0.000000000000000e+00
0.000000000000000e+00 0.000000000000000e+00 0.000000000000000e+00
0.000000000000000e+00 0.000000000000000e+00 0.000000000000000e+00
0.000000000000000e+00 0.000000000000000e+00 0.000000000000000e+00
0.000000000000000e+00 0.000000000000000e+00 0.000000000000000e+00
0.000000000000000e+00 0.000000000000000e+00 0.000000000000000e+00
0.000000000000000e+00 0.000000000000000e+00 0.000000000000000e+00
0.000000000000000e+00 0.000000000000000e+00 0.000000000000000e+00
0.000000000000000e+00 0.000000000000000e+00 0.000000000000000e+00
0.000000000000000e+00 0.000000000000000e+00 0.000000000000000e+00
0.000000000000000e+00 0.000000000000000e+00 0.000000000000000e+00
0.000000000000000e+00 0.000000000000000e+00 0.000000000000000e+00
0.000000000000000e+00 0.000000000000000e+00 0.000000000000000e+00
0.000000000000000e+00 0.000000000000000e+00 0.000000000000000e+00
0.000000000000000e+00 0.000000000000000e+00 0.000000000000000e+00
0.000000000000000e+00 0.000000000000000e+00 0.000000000000000e+00
0.000000000000000e+00 0.000000000000000e+00 0.000000000000000e+00
0.000000000000000e+00 0.000000000000000e+00 0.000000000000000e+00
0.000000000000000e+00 0.000000000000000e+00 0.000000000000000e+00
0.000000000000000e+00 0.000000000000000e+00 0.000000000000000e+00
0.000000000000000e+00 0.000000000000000e+00 0.000000000000000e+00
0.000000000000000e+00 0.000000000000000e+00 0.000000000000000e+00
0.000000000000000e+00 0.000000000000000e+00 0.000000000000000e+00
0.000000000000000e+00 0.000000000000000e+00 0.000000000000000e+00
0.000000000000000e+00 0.000000000000000e+00 0.000000000000000e+00
0.000000000000000e+00 0.000000000000000e+00 0.000000000000000e+00
0.000000000000000e+00 0.000000000000000e+00 0.000000000000000e+00
0.000000000000000e+00 0.000000000000000e+00 0.000000000000000e+00
0.000000000000000e+00 0.000000000000000e+00 0.000000000000000e+00
0.000000000000000e+00 0.000000000000000e+00 0.000000000000000e+00
0.000000000000000e+00 0.000000000000000e+00 0.000000000000000e+00
0.000000000000000e+00 0.000000000000000e+00 0.000000000000000e+00
0.000000000000000e+00 0.000000000000000e+00 0.000000000000000e+00
0.000000000000000e+00 0.000000000000000e+00 0.000000000000000e+00
0.000000000000000e+00 0.000000000000000e+00 0.000000000000000e+00
0.000000000000000e+00 0.000000000000000e+00 0.000000000000000e+00
0.000000000000000e+00 0.000000000000000e+00 0.000000000000000e+00
0.000000000000000e+00 0.000000000000000e+00 0.000000000000000e+00
0.000000000000000e+00 0.000000000000000e+00 0.000000000000000e+00
0.000000000000000e+00 0.000000000000000e+00 0.000000000000000e+00
0.000000000000000e+00 0.000000000000000e+00 0.000000000000000e+00
0.000000000000000e+00 0.000000000000000e+00 0.000000000000000e+00
0.000000000000000e+00 0.000000000000000e+00 0.000000000000000e+00
0.000000000000000e+00 0.000000000000000e+00 0.000000000000000e+00
0.000000000000000e+00 0.000000000000000e+00 0.000000000000000e+00
0.000000000000000e+00 0.000000000000000e+00 0.000000000000000e+00
0.000000000000000e+00 0.000000000000000e+00 0.000000000000000e+00
0.000000000000000e+00 0.000000000000000e+00 0.000000000000000e+00
0.000000000000000e+00 0.000000000000000e+00 0.000000000000000e+00
0.000000000000000e+00 0.000000000000000e+00 0.000000000000000e+00
0.000000000000000e+00 0.000000000000000e+00 0.000000000000000e+00
0.000000000000000e+00 0.000000000000000e+00 0.000000000000000e+00
0.000000000000000e+00 0.000000000000000e+00 0.000000000000000e+00
0.000000000000000e+00 0.000000000000000e+00 0.000000000000000e+00
0.000000000000000e+00 0.000000000000000e+00 0.000000000000000e+00
0.000000000000000e+00 0.000000000000000e+00 0.000000000000000e+00
0.000000000000000e+00 0.000000000000000e+00 0.000000000000000e+00
0.000000000000000e+00 0.000000000000000e+00 0.000000000000000e+00
0.000000000000000e+00 0.000000000000000e+00 0.000000000000000e+00
0.000000000000000e+00 0.000000000000000e+00 0.000000000000000e+00
0.000000000000000e+00 0.000000000000000e+00 0.000000000000000e+00
0.000000000000000e+00 0.000000000000000e+00 0.000000000000000e+00
0.000000000000000e+00 0.000000000000000e+00 0.000000000000000e+00
0.000000000000000e+00 0.000000000000000e+00 0.000000000000000e+00
0.000000000000000e+00 0.000000000000000e+00 0.000000000000000e+00
0.000000000000000e+00 0.000000000000000e+00 0.000000000000000e+00
0.000000000000000e+00 0.000000000000000e+00 0.000000000000000e+00
0.000000000000000e+00 0.000000000000000e+00 0.000000000000000e+00
0.000000000000000e+00 0.000000000000000e+00 0.000000000000000e+00
0.000000000000000e+00 0.000000000000000e+00 0.000000000000000e+00
0.000000000000000e+00 0.000000000000000e+00 0.000000000000000e+00
0.000000000000000e+00 0.000000000000000e+00 0.000000000000000e+00
0.000000000000000e+00 0.000000000000000e+00 0.000000000000000e+00
0.000000000000000e+00 0.000000000000000e+00 0.000000000000000e+00
0.000000000000000e+00 0.000000000000000e+00 0.000000000000000e+00
0.000000000000000e+00 0.000000000000000e+00 0.000000000000000e+00
0.000000000000000e+00 0.000000000000000e+00 0.000000000000000e+00
0.000000000000000e+00 0.000000000000000e+00 0.000000000000000e+00
0.000000000000000e+00 0.000000000000000e+00 0.000000000000000e+00
0.000000000000000e+00 0.000000000000000e+00 0.000000000000000e+00
0.000000000000000e+00 0.000000000000000e+00 0.000000000000000e+00
0.000000000000000e+00 0.000000000000000e+00 0.000000000000000e+00
0.000000000000000e+00 0.000000000000000e+00 0.000000000000000e+00
0.000000000000000e+00 0.000000000000000e+00 0.000000000000000e+00
0.000000000000000e+00 0.000000000000000e+00 0.000000000000000e+00
0.000000000000000e+00 0.000000000000000e+00 0.000000000000000e+00
0.000000000000000e+00 0.000000000000000e+00 0.000000000000000e+00
0.000000000000000e+00 0.000000000000000e+00 0.000000000000000e+00
0.000000000000000e+00 0.000000000000000e+00 0.000000000000000e+00
0.000000000000000e+00 0.000000000000000e+00 0.000000000000000e+00
0.000000000000000e+00 0.000000000000000e+00 0.000000000000000e+00
0.000000000000000e+00 0.000000000000000e+00 0.000000000000000e+00
0.000000000000000e+00 0.000000000000000e+00 0.000000000000000e+00
0.000000000000000e+00 0.000000000000000e+00 0.000000000000000e+00
0.000000000000000e+00 0.000000000000000e+00 0.000000000000000e+00
0.000000000000000e+00 0.000000000000000e+00 0.000000000000000e+00
0.000000000000000e+00 0.000000000000000e+00 0.000000000000000e+00
0.000000000000000e+00 0.000000000000000e+00 0.000000000000000e+00
0.000000000000000e+00 0.000000000000000e+00 0.000000000000000e+00
0.000000000000000e+00 0.000000000000000e+00 0.000000000000000e+00
0.000000000000000e+00 0.000000000000000e+00 0.000000000000000e+00
0.000000000000000e+00 0.000000000000000e+00 0.000000000000000e+00
0.000000000000000e+00 0.000000000000000e+00 0.000000000000000e+00
0.000000000000000e+00 0.000000000000000e+00 0.000000000000000e+00
0.000000000000000e+00 0.000000000000000e+00 0.000000000000000e+00
0.000000000000000e+00 0.000000000000000e+00 0.000000000000000e+00
0.000000000000000e+00 0.000000000000000e+00 0.000000000000000e+00
0.000000000000000e+00 0.000000000000000e+00 0.000000000000000e+00
0.000000000000000e+00 0.000000000000000e+00 0.000000000000000e+00
0.000000000000000e+00 0.000000000000000e+00 0.000000000000000e+00
0.000000000000000e+00 0.000000000000000e+00 0.000000000000000e+00
0.000000000000000e+00 0.000000000000000e+00 0.000000000000000e+00
0.000000000000000e+00 0.000000000000000e+00 0.000000000000000e+00
0.000000000000000e+00 0.000000000000000e+00 0.000000000000000e+00
0.000000000000000e+00 0.000000000000000e+00 0.000000000000000e+00
0.000000000000000e+00 0.000000000000000e+00 0.000000000000000e+00
0.000000000000000e+00 0.000000000000000e+00 0.000000000000000e+00
0.000000000000000e+00 0.000000000000000e+00 0.000000000000000e+00
0.000000000000000e+00 0.000000000000000e+00 0.000000000000000e+00
0.000000000000000e+00 0.000000000000000e+00 0.000000000000000e+00
0.000000000000000e+00 0.000000000000000e+00 0.000000000000000e+00
0.000000000000000e+00 0.000000000000000e+00 0.000000000000000e+00
0.000000000000000e+00 0.000000000000000e+00 0.000000000000000e+00
0.000000000000000e+00 0.000000000000000e+00 0.000000000000000e+00
0.000000000000000e+00 0.000000000000000e+00 0.000000000000000e+00
0.000000000000000e+00 0.000000000000000e+00 0.000000000000000e+00
0.000000000000000e+00 0.000000000000000e+00 0.000000000000000e+00
0.000000000000000e+00 0.000000000000000e+00 0.000000000000000e+00
0.000000000000000e+00 0.000000000000000e+00 0.000000000000000e+00
0.000000000000000e+00 0.000000000000000e+00 0.000000000000000e+00
0.000000000000000e+00 0.000000000000000e+00 0.000000000000000e+00
0.000000000000000e+00 0.000000000000000e+00 0.000000000000000e+00
0.000000000000000e+00 0.000000000000000e+00 0.000000000000000e+00
0.000000000000000e+00 0.000000000000000e+00 0.000000000000000e+00
0.000000000000000e+00 0.000000000000000e+00 0.000000000000000e+00
0.000000000000000e+00 0.000000000000000e+00 0.000000000000000e+00
0.000000000000000e+00 0.000000000000000e+00 0.000000000000000e+00
0.000000000000000e+00 0.000000000000000e+00 0.000000000000000e+00
0.000000000000000e+00 0.000000000000000e+00 0.000000000000000e+00
0.000000000000000e+00 0.000000000000000e+00 0.000000000000000e+00
0.000000000000000e+00 0.000000000000000e+00 0.000000000000000e+00
0.000000000000000e+00 0.000000000000000e+00 0.000000000000000e+00
0.000000000000000e+00 0.000000000000000e+00 0.000000000000000e+00
0.000000000000000e+00 0.000000000000000e+00 0.000000000000000e+00
0.000000000000000e+00 0.000000000000000e+00 0.000000000000000e+00
0.000000000000000e+00 0.000000000000000e+00 0.000000000000000e+00
0.000000000000000e+00 0.000000000000000e+00 0.000000000000000e+00
0.000000000000000e+00 0.000000000000000e+00 0.000000000000000e+00
0.000000000000000e+00 0.000000000000000e+00 0.000000000000000e+00
0.000000000000000e+00 0.000000000000000e+00 0.000000000000000e+00
0.000000000000000e+00 0.000000000000000e+00 0.000000000000000e+00
0.000000000000000e+00 0.000000000000000e+00 0.000000000000000e+00
0.000000000000000e+00 0.000000000000000e+00 0.000000000000000e+00
0.000000000000000e+00 0.000000000000000e+00 0.000000000000000e+00
0.000000000000000e+00 0.000000000000000e+00 0.000000000000000e+00
0.000000000000000e+00 0.000000000000000e+00 0.000000000000000e+00
0.000000000000000e+00 0.000000000000000e+00 0.000000000000000e+00
0.000000000000000e+00 0.000000000000000e+00 0.000000000000000e+00
0.000000000000000e+00 0.000000000000000e+00 0.000000000000000e+00