<?xml version="1.0" ?> 
<!-- 
# vtk DataFile Version 3.0
-->
<VTKFile type="UnstructuredGrid" version="0.1" compressor="vtkZLibDataCompressor" byte_order="LittleEndian">
  <UnstructuredGrid>
    <FieldData>
      <DataArray type="Float64" Name="TIME" NumberOfTuples="1" format="ascii">
9.999999999999999e-01 
      </DataArray>
    </FieldData>

    <Piece NumberOfPoints="224" NumberOfCells="56" >
      <Points>
        <DataArray type="Float64" NumberOfComponents="3" format="ascii">
1.500000000000000e+00 1.000000000000000e+01 0.000000000000000e+00
1.500000000000000e+00 9.972037971811801e+00 -7.473009358642437e-01
7.500000000000000e-01 9.972037971811801e+00 -7.473009358642460e-01
7.500000000000000e-01 1.000000000000000e+01 0.000000000000000e+00
1.500000000000000e+00 9.972037971811801e+00 -7.473009358642437e-01
1.500000000000000e+00 9.888308262251284e+00 -1.490422661761744e+00
7.500000000000000e-01 9.888308262251284e+00 -1.490422661761744e+00
7.500000000000000e-01 9.972037971811801e+00 -7.473009358642460e-01
1.500000000000000e+00 9.888308262251284e+00 -1.490422661761744e+00
1.500000000000000e+00 9.749279121818235e+00 -2.225209339563144e+00
7.499999999999998e-01 9.749279121818235e+00 -2.225209339563144e+00
7.500000000000000e-01 9.888308262251284e+00 -1.490422661761744e+00
1.500000000000000e+00 9.749279121818235e+00 -2.225209339563144e+00
1.500000000000000e+00 9.555728057861408e+00 -2.947551744109040e+00
7.499999999999998e-01 9.555728057861408e+00 -2.947551744109040e+00
7.499999999999998e-01 9.749279121818235e+00 -2.225209339563144e+00
1.500000000000000e+00 9.555728057861408e+00 -2.947551744109040e+00
1.500000000000000e+00 9.308737486442043e+00 -3.653410243663950e+00
7.499999999999997e-01 9.308737486442041e+00 -3.653410243663951e+00
7.499999999999998e-01 9.555728057861408e+00 -2.947551744109040e+00
1.500000000000000e+00 9.308737486442043e+00 -3.653410243663950e+00
1.500000000000000e+00 9.009688679024190e+00 -4.338837391175582e+00
7.500000000000000e-01 9.009688679024190e+00 -4.338837391175582e+00
7.499999999999997e-01 9.308737486442041e+00 -3.653410243663951e+00
1.500000000000000e+00 9.009688679024190e+00 -4.338837391175582e+00
1.500000000000000e+00 8.660254037844386e+00 -4.999999999999999e+00
7.500000000000001e-01 8.660254037844386e+00 -4.999999999999999e+00
7.500000000000000e-01 9.009688679024190e+00 -4.338837391175582e+00
1.500000000000000e+00 8.660254037844386e+00 -4.999999999999999e+00
1.500000000000000e+00 8.262387743159948e+00 -5.633200580636220e+00
7.499999999999998e-01 8.262387743159946e+00 -5.633200580636222e+00
7.500000000000001e-01 8.660254037844386e+00 -4.999999999999999e+00
1.500000000000000e+00 8.262387743159948e+00 -5.633200580636220e+00
1.500000000000000e+00 7.818314824680296e+00 -6.234898018587335e+00
7.500000000000000e-01 7.818314824680295e+00 -6.234898018587338e+00
7.499999999999998e-01 8.262387743159946e+00 -5.633200580636222e+00
1.500000000000000e+00 7.818314824680296e+00 -6.234898018587335e+00
1.500000000000000e+00 7.330518718298262e+00 -6.801727377709192e+00
7.499999999999998e-01 7.330518718298262e+00 -6.801727377709192e+00
7.500000000000000e-01 7.818314824680295e+00 -6.234898018587338e+00
1.500000000000000e+00 7.330518718298262e+00 -6.801727377709192e+00
1.500000000000000e+00 6.801727377709192e+00 -7.330518718298262e+00
7.500000000000001e-01 6.801727377709192e+00 -7.330518718298265e+00
7.499999999999998e-01 7.330518718298262e+00 -6.801727377709192e+00
1.500000000000000e+00 6.801727377709192e+00 -7.330518718298262e+00
1.500000000000000e+00 6.234898018587334e+00 -7.818314824680296e+00
7.500000000000001e-01 6.234898018587334e+00 -7.818314824680296e+00
7.500000000000001e-01 6.801727377709192e+00 -7.330518718298265e+00
1.500000000000000e+00 6.234898018587334e+00 -7.818314824680296e+00
1.500000000000000e+00 5.633200580636220e+00 -8.262387743159948e+00
7.500000000000000e-01 5.633200580636220e+00 -8.262387743159948e+00
7.500000000000001e-01 6.234898018587334e+00 -7.818314824680296e+00
7.500000000000000e-01 1.000000000000000e+01 0.000000000000000e+00
7.500000000000000e-01 9.972037971811801e+00 -7.473009358642460e-01
0.000000000000000e+00 9.972037971811801e+00 -7.473009358642437e-01
0.000000000000000e+00 1.000000000000000e+01 0.000000000000000e+00
7.500000000000000e-01 9.972037971811801e+00 -7.473009358642460e-01
7.500000000000000e-01 9.888308262251284e+00 -1.490422661761744e+00
0.000000000000000e+00 9.888308262251284e+00 -1.490422661761746e+00
0.000000000000000e+00 9.972037971811801e+00 -7.473009358642437e-01
7.500000000000000e-01 9.888308262251284e+00 -1.490422661761744e+00
7.499999999999998e-01 9.749279121818235e+00 -2.225209339563144e+00
0.000000000000000e+00 9.749279121818235e+00 -2.225209339563144e+00
0.000000000000000e+00 9.888308262251284e+00 -1.490422661761746e+00
7.499999999999998e-01 9.749279121818235e+00 -2.225209339563144e+00
7.499999999999998e-01 9.555728057861408e+00 -2.947551744109040e+00
0.000000000000000e+00 9.555728057861405e+00 -2.947551744109043e+00
0.000000000000000e+00 9.749279121818235e+00 -2.225209339563144e+00
7.499999999999998e-01 9.555728057861408e+00 -2.947551744109040e+00
7.499999999999997e-01 9.308737486442041e+00 -3.653410243663951e+00
0.000000000000000e+00 9.308737486442041e+00 -3.653410243663951e+00
0.000000000000000e+00 9.555728057861405e+00 -2.947551744109043e+00
7.499999999999997e-01 9.308737486442041e+00 -3.653410243663951e+00
7.500000000000000e-01 9.009688679024190e+00 -4.338837391175582e+00
0.000000000000000e+00 9.009688679024190e+00 -4.338837391175582e+00
0.000000000000000e+00 9.308737486442041e+00 -3.653410243663951e+00
7.500000000000000e-01 9.009688679024190e+00 -4.338837391175582e+00
7.500000000000001e-01 8.660254037844386e+00 -4.999999999999999e+00
0.000000000000000e+00 8.660254037844386e+00 -5.000000000000000e+00
0.000000000000000e+00 9.009688679024190e+00 -4.338837391175582e+00
7.500000000000001e-01 8.660254037844386e+00 -4.999999999999999e+00
7.499999999999998e-01 8.262387743159946e+00 -5.633200580636222e+00
0.000000000000000e+00 8.262387743159946e+00 -5.633200580636220e+00
0.000000000000000e+00 8.660254037844386e+00 -5.000000000000000e+00
7.499999999999998e-01 8.262387743159946e+00 -5.633200580636222e+00
7.500000000000000e-01 7.818314824680295e+00 -6.234898018587338e+00
0.000000000000000e+00 7.818314824680296e+00 -6.234898018587335e+00
0.000000000000000e+00 8.262387743159946e+00 -5.633200580636220e+00
7.500000000000000e-01 7.818314824680295e+00 -6.234898018587338e+00
7.499999999999998e-01 7.330518718298262e+00 -6.801727377709192e+00
0.000000000000000e+00 7.330518718298262e+00 -6.801727377709195e+00
0.000000000000000e+00 7.818314824680296e+00 -6.234898018587335e+00
7.499999999999998e-01 7.330518718298262e+00 -6.801727377709192e+00
7.500000000000001e-01 6.801727377709192e+00 -7.330518718298265e+00
0.000000000000000e+00 6.801727377709192e+00 -7.330518718298262e+00
0.000000000000000e+00 7.330518718298262e+00 -6.801727377709195e+00
7.500000000000001e-01 6.801727377709192e+00 -7.330518718298265e+00
7.500000000000001e-01 6.234898018587334e+00 -7.818314824680296e+00
0.000000000000000e+00 6.234898018587334e+00 -7.818314824680296e+00
0.000000000000000e+00 6.801727377709192e+00 -7.330518718298262e+00
7.500000000000001e-01 6.234898018587334e+00 -7.818314824680296e+00
7.500000000000000e-01 5.633200580636220e+00 -8.262387743159948e+00
0.000000000000000e+00 5.633200580636220e+00 -8.262387743159948e+00
0.000000000000000e+00 6.234898018587334e+00 -7.818314824680296e+00
1.500000000000000e+00 4.338837391175582e+00 9.009688679024190e+00
1.500000000000000e+00 4.999999999999999e+00 8.660254037844386e+00
7.500000000000001e-01 4.999999999999999e+00 8.660254037844386e+00
7.500000000000000e-01 4.338837391175582e+00 9.009688679024190e+00
1.500000000000000e+00 4.999999999999999e+00 8.660254037844386e+00
1.500000000000000e+00 5.633200580636220e+00 8.262387743159948e+00
7.499999999999998e-01 5.633200580636222e+00 8.262387743159946e+00
7.500000000000001e-01 4.999999999999999e+00 8.660254037844386e+00
1.500000000000000e+00 5.633200580636220e+00 8.262387743159948e+00
1.500000000000000e+00 6.234898018587335e+00 7.818314824680296e+00
7.500000000000000e-01 6.234898018587338e+00 7.818314824680295e+00
7.499999999999998e-01 5.633200580636222e+00 8.262387743159946e+00
1.500000000000000e+00 6.234898018587335e+00 7.818314824680296e+00
1.500000000000000e+00 6.801727377709192e+00 7.330518718298262e+00
7.499999999999998e-01 6.801727377709192e+00 7.330518718298262e+00
7.500000000000000e-01 6.234898018587338e+00 7.818314824680295e+00
1.500000000000000e+00 6.801727377709192e+00 7.330518718298262e+00
1.500000000000000e+00 7.330518718298262e+00 6.801727377709192e+00
7.500000000000001e-01 7.330518718298265e+00 6.801727377709192e+00
7.499999999999998e-01 6.801727377709192e+00 7.330518718298262e+00
1.500000000000000e+00 7.330518718298262e+00 6.801727377709192e+00
1.500000000000000e+00 7.818314824680296e+00 6.234898018587334e+00
7.500000000000001e-01 7.818314824680296e+00 6.234898018587334e+00
7.500000000000001e-01 7.330518718298265e+00 6.801727377709192e+00
1.500000000000000e+00 7.818314824680296e+00 6.234898018587334e+00
1.500000000000000e+00 8.262387743159948e+00 5.633200580636220e+00
7.500000000000000e-01 8.262387743159948e+00 5.633200580636220e+00
7.500000000000001e-01 7.818314824680296e+00 6.234898018587334e+00
1.500000000000000e+00 8.262387743159948e+00 5.633200580636220e+00
1.500000000000000e+00 8.660254037844386e+00 5.000000000000000e+00
7.500000000000000e-01 8.660254037844386e+00 4.999999999999998e+00
7.500000000000000e-01 8.262387743159948e+00 5.633200580636220e+00
1.500000000000000e+00 8.660254037844386e+00 5.000000000000000e+00
1.500000000000000e+00 9.009688679024190e+00 4.338837391175581e+00
7.500000000000001e-01 9.009688679024190e+00 4.338837391175581e+00
7.500000000000000e-01 8.660254037844386e+00 4.999999999999998e+00
1.500000000000000e+00 9.009688679024190e+00 4.338837391175581e+00
1.500000000000000e+00 9.308737486442043e+00 3.653410243663951e+00
7.500000000000000e-01 9.308737486442043e+00 3.653410243663950e+00
7.500000000000001e-01 9.009688679024190e+00 4.338837391175581e+00
1.500000000000000e+00 9.308737486442043e+00 3.653410243663951e+00
1.500000000000000e+00 9.555728057861405e+00 2.947551744109043e+00
7.499999999999998e-01 9.555728057861408e+00 2.947551744109042e+00
7.500000000000000e-01 9.308737486442043e+00 3.653410243663950e+00
1.500000000000000e+00 9.555728057861405e+00 2.947551744109043e+00
1.500000000000000e+00 9.749279121818235e+00 2.225209339563144e+00
7.500000000000001e-01 9.749279121818235e+00 2.225209339563144e+00
7.499999999999998e-01 9.555728057861408e+00 2.947551744109042e+00
1.500000000000000e+00 9.749279121818235e+00 2.225209339563144e+00
1.500000000000000e+00 9.888308262251284e+00 1.490422661761746e+00
7.500000000000000e-01 9.888308262251284e+00 1.490422661761744e+00
7.500000000000001e-01 9.749279121818235e+00 2.225209339563144e+00
1.500000000000000e+00 9.888308262251284e+00 1.490422661761746e+00
1.500000000000000e+00 9.972037971811801e+00 7.473009358642433e-01
7.499999999999998e-01 9.972037971811801e+00 7.473009358642430e-01
7.500000000000000e-01 9.888308262251284e+00 1.490422661761744e+00
1.500000000000000e+00 9.972037971811801e+00 7.473009358642433e-01
1.500000000000000e+00 1.000000000000000e+01 0.000000000000000e+00
7.500000000000000e-01 1.000000000000000e+01 0.000000000000000e+00
7.499999999999998e-01 9.972037971811801e+00 7.473009358642430e-01
7.500000000000000e-01 4.338837391175582e+00 9.009688679024190e+00
7.500000000000001e-01 4.999999999999999e+00 8.660254037844386e+00
0.000000000000000e+00 5.000000000000000e+00 8.660254037844386e+00
0.000000000000000e+00 4.338837391175582e+00 9.009688679024190e+00
7.500000000000001e-01 4.999999999999999e+00 8.660254037844386e+00
7.499999999999998e-01 5.633200580636222e+00 8.262387743159946e+00
0.000000000000000e+00 5.633200580636220e+00 8.262387743159946e+00
0.000000000000000e+00 5.000000000000000e+00 8.660254037844386e+00
7.499999999999998e-01 5.633200580636222e+00 8.262387743159946e+00
7.500000000000000e-01 6.234898018587338e+00 7.818314824680295e+00
0.000000000000000e+00 6.234898018587335e+00 7.818314824680296e+00
0.000000000000000e+00 5.633200580636220e+00 8.262387743159946e+00
7.500000000000000e-01 6.234898018587338e+00 7.818314824680295e+00
7.499999999999998e-01 6.801727377709192e+00 7.330518718298262e+00
0.000000000000000e+00 6.801727377709195e+00 7.330518718298262e+00
0.000000000000000e+00 6.234898018587335e+00 7.818314824680296e+00
7.499999999999998e-01 6.801727377709192e+00 7.330518718298262e+00
7.500000000000001e-01 7.330518718298265e+00 6.801727377709192e+00
0.000000000000000e+00 7.330518718298262e+00 6.801727377709192e+00
0.000000000000000e+00 6.801727377709195e+00 7.330518718298262e+00
7.500000000000001e-01 7.330518718298265e+00 6.801727377709192e+00
7.500000000000001e-01 7.818314824680296e+00 6.234898018587334e+00
0.000000000000000e+00 7.818314824680296e+00 6.234898018587334e+00
0.000000000000000e+00 7.330518718298262e+00 6.801727377709192e+00
7.500000000000001e-01 7.818314824680296e+00 6.234898018587334e+00
7.500000000000000e-01 8.262387743159948e+00 5.633200580636220e+00
0.000000000000000e+00 8.262387743159948e+00 5.633200580636220e+00
0.000000000000000e+00 7.818314824680296e+00 6.234898018587334e+00
7.500000000000000e-01 8.262387743159948e+00 5.633200580636220e+00
7.500000000000000e-01 8.660254037844386e+00 4.999999999999998e+00
0.000000000000000e+00 8.660254037844386e+00 4.999999999999999e+00
0.000000000000000e+00 8.262387743159948e+00 5.633200580636220e+00
7.500000000000000e-01 8.660254037844386e+00 4.999999999999998e+00
7.500000000000001e-01 9.009688679024190e+00 4.338837391175581e+00
0.000000000000000e+00 9.009688679024190e+00 4.338837391175581e+00
0.000000000000000e+00 8.660254037844386e+00 4.999999999999999e+00
7.500000000000001e-01 9.009688679024190e+00 4.338837391175581e+00
7.500000000000000e-01 9.308737486442043e+00 3.653410243663950e+00
0.000000000000000e+00 9.308737486442043e+00 3.653410243663950e+00
0.000000000000000e+00 9.009688679024190e+00 4.338837391175581e+00
7.500000000000000e-01 9.308737486442043e+00 3.653410243663950e+00
7.499999999999998e-01 9.555728057861408e+00 2.947551744109042e+00
0.000000000000000e+00 9.555728057861408e+00 2.947551744109042e+00
0.000000000000000e+00 9.308737486442043e+00 3.653410243663950e+00
7.499999999999998e-01 9.555728057861408e+00 2.947551744109042e+00
7.500000000000001e-01 9.749279121818235e+00 2.225209339563144e+00
0.000000000000000e+00 9.749279121818235e+00 2.225209339563144e+00
0.000000000000000e+00 9.555728057861408e+00 2.947551744109042e+00
7.500000000000001e-01 9.749279121818235e+00 2.225209339563144e+00
7.500000000000000e-01 9.888308262251284e+00 1.490422661761744e+00
0.000000000000000e+00 9.888308262251284e+00 1.490422661761744e+00
0.000000000000000e+00 9.749279121818235e+00 2.225209339563144e+00
7.500000000000000e-01 9.888308262251284e+00 1.490422661761744e+00
7.499999999999998e-01 9.972037971811801e+00 7.473009358642430e-01
0.000000000000000e+00 9.972037971811801e+00 7.473009358642424e-01
0.000000000000000e+00 9.888308262251284e+00 1.490422661761744e+00
7.499999999999998e-01 9.972037971811801e+00 7.473009358642430e-01
7.500000000000000e-01 1.000000000000000e+01 0.000000000000000e+00
0.000000000000000e+00 1.000000000000000e+01 0.000000000000000e+00
0.000000000000000e+00 9.972037971811801e+00 7.473009358642424e-01
        </DataArray>
      </Points>

      <Cells>
        <DataArray type="Int32" Name="connectivity" format="ascii">
0 1 2 3 4 5 6 7 8 9 10 11 12 13 14 15 16 17 18 19 20 21 22 23 24 25 26 27 28 29 30 31 32 33 34 35 36 37 38 39 40 41 42 43 44 45 46 47 48 49 50 51 52 53 54 55 56 57 58 59 60 61 62 63 64 65 66 67 68 69 70 71 72 73 74 75 76 77 78 79 80 81 82 83 84 85 86 87 88 89 90 91 92 93 94 95 96 97 98 99 100 101 102 103 104 105 106 107 108 109 110 111 112 113 114 115 116 117 118 119 120 121 122 123 124 125 126 127 128 129 130 131 132 133 134 135 136 137 138 139 140 141 142 143 144 145 146 147 148 149 150 151 152 153 154 155 156 157 158 159 160 161 162 163 164 165 166 167 168 169 170 171 172 173 174 175 176 177 178 179 180 181 182 183 184 185 186 187 188 189 190 191 192 193 194 195 196 197 198 199 200 201 202 203 204 205 206 207 208 209 210 211 212 213 214 215 216 217 218 219 220 221 222 223 
        </DataArray>
        <DataArray type="Int32" Name="offsets" format="ascii">
4 8 12 16 20 24 28 32 36 40 44 48 52 56 60 64 68 72 76 80 84 88 92 96 100 104 108 112 116 120 124 128 132 136 140 144 148 152 156 160 164 168 172 176 180 184 188 192 196 200 204 208 212 216 220 224 
        </DataArray>
        <DataArray type="UInt8" Name="types" format="ascii">
9 9 9 9 9 9 9 9 9 9 9 9 9 9 9 9 9 9 9 9 9 9 9 9 9 9 9 9 9 9 9 9 9 9 9 9 9 9 9 9 9 9 9 9 9 9 9 9 9 9 9 9 9 9 9 9 
        </DataArray>
      </Cells>

  <PointData>
        <DataArray type="Float64" Name="displacement" NumberOfComponents="3" format="ascii">
0.000000000000000e+00 2.499313189160724e+00 -1.020783538150061e-16
0.000000000000000e+00 2.492324602576080e+00 -1.867739085277660e-01
-6.391562265066857e-17 2.492360202610326e+00 -1.867765763815175e-01
-2.042587577928064e-17 2.499348889019015e+00 -2.090286557885095e-16
0.000000000000000e+00 2.492324602576080e+00 -1.867739085277660e-01
0.000000000000000e+00 2.471397925833162e+00 -3.725033015965166e-01
1.519044230577346e-17 2.471433226953531e+00 -3.725086223842984e-01
-6.391562265066857e-17 2.492360202610326e+00 -1.867765763815175e-01
0.000000000000000e+00 2.471397925833162e+00 -3.725033015965166e-01
0.000000000000000e+00 2.436650189396961e+00 -5.561495051013797e-01
1.155459997029922e-17 2.436684994185269e+00 -5.561574490671887e-01
1.519044230577346e-17 2.471433226953531e+00 -3.725086223842984e-01
0.000000000000000e+00 2.436650189396961e+00 -5.561495051013797e-01
0.000000000000000e+00 2.388275716704618e+00 -7.366854949785425e-01
-4.277364329606564e-17 2.388309830518374e+00 -7.366960176964990e-01
1.155459997029922e-17 2.436684994185269e+00 -5.561574490671887e-01
0.000000000000000e+00 2.388275716704618e+00 -7.366854949785425e-01
0.000000000000000e+00 2.326545037429943e+00 -9.131016407404211e-01
-1.094903997223202e-16 2.326578269490856e+00 -9.131146833632188e-01
-4.277364329606564e-17 2.388309830518374e+00 -7.366960176964990e-01
0.000000000000000e+00 2.326545037429943e+00 -9.131016407404211e-01
0.000000000000000e+00 2.251803374571722e+00 -1.084411351738885e+00
-1.048912629557152e-18 2.251835539032629e+00 -1.084426841326885e+00
-1.094903997223202e-16 2.326578269490856e+00 -9.131146833632188e-01
0.000000000000000e+00 2.251803374571722e+00 -1.084411351738885e+00
0.000000000000000e+00 2.164468713826688e+00 -1.249656594580363e+00
-2.004472110921060e-16 2.164499630810881e+00 -1.249674444509508e+00
-1.048912629557152e-18 2.251835539032629e+00 -1.084426841326885e+00
0.000000000000000e+00 2.164468713826688e+00 -1.249656594580363e+00
0.000000000000000e+00 2.065029466043956e+00 -1.407913250837197e+00
5.747110907865348e-17 2.065058962651113e+00 -1.407933361283442e+00
-2.004472110921060e-16 2.164499630810881e+00 -1.249674444509508e+00
0.000000000000000e+00 2.065029466043956e+00 -1.407913250837197e+00
0.000000000000000e+00 1.954041735833428e+00 -1.558296285092741e+00
-6.242137460571030e-17 1.954069647106558e+00 -1.558318543590313e+00
5.747110907865348e-17 2.065058962651113e+00 -1.407933361283442e+00
0.000000000000000e+00 1.954041735833428e+00 -1.558296285092741e+00
0.000000000000000e+00 1.832126211603241e+00 -1.699964694418419e+00
-5.663755479428277e-17 1.832152381451186e+00 -1.699988976488771e+00
-6.242137460571030e-17 1.954069647106558e+00 -1.558318543590313e+00
0.000000000000000e+00 1.832126211603241e+00 -1.699964694418419e+00
0.000000000000000e+00 1.699964694418417e+00 -1.832126211603243e+00
-3.601328591608392e-17 1.699988976488767e+00 -1.832152381451186e+00
-5.663755479428277e-17 1.832152381451186e+00 -1.699988976488771e+00
0.000000000000000e+00 1.699964694418417e+00 -1.832126211603243e+00
0.000000000000000e+00 1.558296285092740e+00 -1.954041735833430e+00
3.467272159720377e-17 1.558318543590312e+00 -1.954069647106561e+00
-3.601328591608392e-17 1.699988976488767e+00 -1.832152381451186e+00
0.000000000000000e+00 1.558296285092740e+00 -1.954041735833430e+00
0.000000000000000e+00 1.407913250837195e+00 -2.065029466043958e+00
1.484108454247681e-16 1.407933361283441e+00 -2.065058962651115e+00
3.467272159720377e-17 1.558318543590312e+00 -1.954069647106561e+00
-2.042587577928064e-17 2.499348889019015e+00 -2.090286557885095e-16
-6.391562265066857e-17 2.492360202610326e+00 -1.867765763815175e-01
0.000000000000000e+00 2.492324602576081e+00 -1.867739085277658e-01
0.000000000000000e+00 2.499313189160725e+00 -7.265237303700688e-17
-6.391562265066857e-17 2.492360202610326e+00 -1.867765763815175e-01
1.519044230577346e-17 2.471433226953531e+00 -3.725086223842984e-01
0.000000000000000e+00 2.471397925833160e+00 -3.725033015965168e-01
0.000000000000000e+00 2.492324602576081e+00 -1.867739085277658e-01
1.519044230577346e-17 2.471433226953531e+00 -3.725086223842984e-01
1.155459997029922e-17 2.436684994185269e+00 -5.561574490671887e-01
0.000000000000000e+00 2.436650189396960e+00 -5.561495051013798e-01
0.000000000000000e+00 2.471397925833160e+00 -3.725033015965168e-01
1.155459997029922e-17 2.436684994185269e+00 -5.561574490671887e-01
-4.277364329606564e-17 2.388309830518374e+00 -7.366960176964990e-01
0.000000000000000e+00 2.388275716704623e+00 -7.366854949785439e-01
0.000000000000000e+00 2.436650189396960e+00 -5.561495051013798e-01
-4.277364329606564e-17 2.388309830518374e+00 -7.366960176964990e-01
-1.094903997223202e-16 2.326578269490856e+00 -9.131146833632188e-01
0.000000000000000e+00 2.326545037429945e+00 -9.131016407404220e-01
0.000000000000000e+00 2.388275716704623e+00 -7.366854949785439e-01
-1.094903997223202e-16 2.326578269490856e+00 -9.131146833632188e-01
-1.048912629557152e-18 2.251835539032629e+00 -1.084426841326885e+00
0.000000000000000e+00 2.251803374571723e+00 -1.084411351738884e+00
0.000000000000000e+00 2.326545037429945e+00 -9.131016407404220e-01
-1.048912629557152e-18 2.251835539032629e+00 -1.084426841326885e+00
-2.004472110921060e-16 2.164499630810881e+00 -1.249674444509508e+00
0.000000000000000e+00 2.164468713826689e+00 -1.249656594580363e+00
0.000000000000000e+00 2.251803374571723e+00 -1.084411351738884e+00
-2.004472110921060e-16 2.164499630810881e+00 -1.249674444509508e+00
5.747110907865348e-17 2.065058962651113e+00 -1.407933361283442e+00
0.000000000000000e+00 2.065029466043958e+00 -1.407913250837197e+00
0.000000000000000e+00 2.164468713826689e+00 -1.249656594580363e+00
5.747110907865348e-17 2.065058962651113e+00 -1.407933361283442e+00
-6.242137460571030e-17 1.954069647106558e+00 -1.558318543590313e+00
0.000000000000000e+00 1.954041735833429e+00 -1.558296285092740e+00
0.000000000000000e+00 2.065029466043958e+00 -1.407913250837197e+00
-6.242137460571030e-17 1.954069647106558e+00 -1.558318543590313e+00
-5.663755479428277e-17 1.832152381451186e+00 -1.699988976488771e+00
0.000000000000000e+00 1.832126211603240e+00 -1.699964694418419e+00
0.000000000000000e+00 1.954041735833429e+00 -1.558296285092740e+00
-5.663755479428277e-17 1.832152381451186e+00 -1.699988976488771e+00
-3.601328591608392e-17 1.699988976488767e+00 -1.832152381451186e+00
0.000000000000000e+00 1.699964694418418e+00 -1.832126211603244e+00
0.000000000000000e+00 1.832126211603240e+00 -1.699964694418419e+00
-3.601328591608392e-17 1.699988976488767e+00 -1.832152381451186e+00
3.467272159720377e-17 1.558318543590312e+00 -1.954069647106561e+00
0.000000000000000e+00 1.558296285092740e+00 -1.954041735833431e+00
0.000000000000000e+00 1.699964694418418e+00 -1.832126211603244e+00
3.467272159720377e-17 1.558318543590312e+00 -1.954069647106561e+00
1.484108454247681e-16 1.407933361283441e+00 -2.065058962651115e+00
0.000000000000000e+00 1.407913250837195e+00 -2.065029466043958e+00
0.000000000000000e+00 1.558296285092740e+00 -1.954041735833431e+00
0.000000000000000e+00 1.084411351738884e+00 2.251803374571724e+00
0.000000000000000e+00 1.249656594580362e+00 2.164468713826691e+00
-2.349465310384991e-16 1.249674444509508e+00 2.164499630810883e+00
1.615901828037820e-17 1.084426841326886e+00 2.251835539032633e+00
0.000000000000000e+00 1.249656594580362e+00 2.164468713826691e+00
0.000000000000000e+00 1.407913250837197e+00 2.065029466043958e+00
1.487396448970243e-16 1.407933361283441e+00 2.065058962651116e+00
-2.349465310384991e-16 1.249674444509508e+00 2.164499630810883e+00
0.000000000000000e+00 1.407913250837197e+00 2.065029466043958e+00
0.000000000000000e+00 1.558296285092741e+00 1.954041735833430e+00
-5.015341121670165e-17 1.558318543590313e+00 1.954069647106560e+00
1.487396448970243e-16 1.407933361283441e+00 2.065058962651116e+00
0.000000000000000e+00 1.558296285092741e+00 1.954041735833430e+00
0.000000000000000e+00 1.699964694418419e+00 1.832126211603244e+00
-5.439750358602563e-18 1.699988976488770e+00 1.832152381451187e+00
-5.015341121670165e-17 1.558318543590313e+00 1.954069647106560e+00
0.000000000000000e+00 1.699964694418419e+00 1.832126211603244e+00
0.000000000000000e+00 1.832126211603244e+00 1.699964694418418e+00
-9.028753717725961e-17 1.832152381451186e+00 1.699988976488770e+00
-5.439750358602563e-18 1.699988976488770e+00 1.832152381451187e+00
0.000000000000000e+00 1.832126211603244e+00 1.699964694418418e+00
0.000000000000000e+00 1.954041735833429e+00 1.558296285092741e+00
-5.698052930002508e-17 1.954069647106562e+00 1.558318543590312e+00
-9.028753717725961e-17 1.832152381451186e+00 1.699988976488770e+00
0.000000000000000e+00 1.954041735833429e+00 1.558296285092741e+00
0.000000000000000e+00 2.065029466043957e+00 1.407913250837197e+00
1.370460460389462e-16 2.065058962651114e+00 1.407933361283442e+00
-5.698052930002508e-17 1.954069647106562e+00 1.558318543590312e+00
0.000000000000000e+00 2.065029466043957e+00 1.407913250837197e+00
0.000000000000000e+00 2.164468713826689e+00 1.249656594580362e+00
-1.003553824253575e-17 2.164499630810881e+00 1.249674444509507e+00
1.370460460389462e-16 2.065058962651114e+00 1.407933361283442e+00
0.000000000000000e+00 2.164468713826689e+00 1.249656594580362e+00
0.000000000000000e+00 2.251803374571723e+00 1.084411351738885e+00
-7.605531824374113e-17 2.251835539032633e+00 1.084426841326886e+00
-1.003553824253575e-17 2.164499630810881e+00 1.249674444509507e+00
0.000000000000000e+00 2.251803374571723e+00 1.084411351738885e+00
0.000000000000000e+00 2.326545037429945e+00 9.131016407404212e-01
1.650608428782406e-16 2.326578269490858e+00 9.131146833632178e-01
-7.605531824374113e-17 2.251835539032633e+00 1.084426841326886e+00
0.000000000000000e+00 2.326545037429945e+00 9.131016407404212e-01
0.000000000000000e+00 2.388275716704622e+00 7.366854949785434e-01
-2.450984284253881e-17 2.388309830518374e+00 7.366960176964993e-01
1.650608428782406e-16 2.326578269490858e+00 9.131146833632178e-01
0.000000000000000e+00 2.388275716704622e+00 7.366854949785434e-01
0.000000000000000e+00 2.436650189396962e+00 5.561495051013795e-01
2.778197277750042e-18 2.436684994185268e+00 5.561574490671884e-01
-2.450984284253881e-17 2.388309830518374e+00 7.366960176964993e-01
0.000000000000000e+00 2.436650189396962e+00 5.561495051013795e-01
0.000000000000000e+00 2.471397925833162e+00 3.725033015965163e-01
8.951151030593089e-18 2.471433226953531e+00 3.725086223842981e-01
2.778197277750042e-18 2.436684994185268e+00 5.561574490671884e-01
0.000000000000000e+00 2.471397925833162e+00 3.725033015965163e-01
0.000000000000000e+00 2.492324602576079e+00 1.867739085277653e-01
-1.587410778501238e-16 2.492360202610328e+00 1.867765763815166e-01
8.951151030593089e-18 2.471433226953531e+00 3.725086223842981e-01
0.000000000000000e+00 2.492324602576079e+00 1.867739085277653e-01
0.000000000000000e+00 2.499313189160724e+00 -1.020783538150061e-16
-2.042587577928064e-17 2.499348889019015e+00 -2.090286557885095e-16
-1.587410778501238e-16 2.492360202610328e+00 1.867765763815166e-01
1.615901828037820e-17 1.084426841326886e+00 2.251835539032633e+00
-2.349465310384991e-16 1.249674444509508e+00 2.164499630810883e+00
0.000000000000000e+00 1.249656594580362e+00 2.164468713826690e+00
0.000000000000000e+00 1.084411351738884e+00 2.251803374571724e+00
-2.349465310384991e-16 1.249674444509508e+00 2.164499630810883e+00
1.487396448970243e-16 1.407933361283441e+00 2.065058962651116e+00
0.000000000000000e+00 1.407913250837197e+00 2.065029466043959e+00
0.000000000000000e+00 1.249656594580362e+00 2.164468713826690e+00
1.487396448970243e-16 1.407933361283441e+00 2.065058962651116e+00
-5.015341121670165e-17 1.558318543590313e+00 1.954069647106560e+00
0.000000000000000e+00 1.558296285092740e+00 1.954041735833431e+00
0.000000000000000e+00 1.407913250837197e+00 2.065029466043959e+00
-5.015341121670165e-17 1.558318543590313e+00 1.954069647106560e+00
-5.439750358602563e-18 1.699988976488770e+00 1.832152381451187e+00
0.000000000000000e+00 1.699964694418418e+00 1.832126211603241e+00
0.000000000000000e+00 1.558296285092740e+00 1.954041735833431e+00
-5.439750358602563e-18 1.699988976488770e+00 1.832152381451187e+00
-9.028753717725961e-17 1.832152381451186e+00 1.699988976488770e+00
0.000000000000000e+00 1.832126211603243e+00 1.699964694418418e+00
0.000000000000000e+00 1.699964694418418e+00 1.832126211603241e+00
-9.028753717725961e-17 1.832152381451186e+00 1.699988976488770e+00
-5.698052930002508e-17 1.954069647106562e+00 1.558318543590312e+00
0.000000000000000e+00 1.954041735833430e+00 1.558296285092741e+00
0.000000000000000e+00 1.832126211603243e+00 1.699964694418418e+00
-5.698052930002508e-17 1.954069647106562e+00 1.558318543590312e+00
1.370460460389462e-16 2.065058962651114e+00 1.407933361283442e+00
0.000000000000000e+00 2.065029466043959e+00 1.407913250837196e+00
0.000000000000000e+00 1.954041735833430e+00 1.558296285092741e+00
1.370460460389462e-16 2.065058962651114e+00 1.407933361283442e+00
-1.003553824253575e-17 2.164499630810881e+00 1.249674444509507e+00
0.000000000000000e+00 2.164468713826690e+00 1.249656594580362e+00