<?xml version="1.0" ?> 
<!-- 
# vtk DataFile Version 3.0
-->
<VTKFile type="UnstructuredGrid" version="0.1" compressor="vtkZLibDataCompressor" byte_order="LittleEndian">
  <UnstructuredGrid>
    <FieldData>
      <DataArray type="Float64" Name="TIME" NumberOfTuples="1" format="ascii">
9.999999999999999e-01 
      </DataArray>
    </FieldData>

    <Piece NumberOfPoints="224" NumberOfCells="56" >
      <Points>
        <DataArray type="Float64" NumberOfComponents="3" format="ascii">
1.500000000000000e+00 0.000000000000000e+00 -1.000000000000000e+01
1.500000000000000e+00 -7.473009358642437e-01 -9.972037971811801e+00
7.500000000000000e-01 -7.473009358642460e-01 -9.972037971811801e+00
7.500000000000000e-01 0.000000000000000e+00 -1.000000000000000e+01
1.500000000000000e+00 -7.473009358642437e-01 -9.972037971811801e+00
1.500000000000000e+00 -1.490422661761744e+00 -9.888308262251284e+00
7.500000000000000e-01 -1.490422661761744e+00 -9.888308262251284e+00
7.500000000000000e-01 -7.473009358642460e-01 -9.972037971811801e+00
1.500000000000000e+00 -1.490422661761744e+00 -9.888308262251284e+00
1.500000000000000e+00 -2.225209339563144e+00 -9.749279121818235e+00
7.499999999999998e-01 -2.225209339563144e+00 -9.749279121818235e+00
7.500000000000000e-01 -1.490422661761744e+00 -9.888308262251284e+00
1.500000000000000e+00 -2.225209339563144e+00 -9.749279121818235e+00
1.500000000000000e+00 -2.947551744109040e+00 -9.555728057861408e+00
7.499999999999998e-01 -2.947551744109040e+00 -9.555728057861408e+00
7.499999999999998e-01 -2.225209339563144e+00 -9.749279121818235e+00
1.500000000000000e+00 -2.947551744109040e+00 -9.555728057861408e+00
1.500000000000000e+00 -3.653410243663950e+00 -9.308737486442043e+00
7.499999999999997e-01 -3.653410243663951e+00 -9.308737486442041e+00
7.499999999999998e-01 -2.947551744109040e+00 -9.555728057861408e+00
1.500000000000000e+00 -3.653410243663950e+00 -9.308737486442043e+00
1.500000000000000e+00 -4.338837391175582e+00 -9.009688679024190e+00
7.500000000000000e-01 -4.338837391175582e+00 -9.009688679024190e+00
7.499999999999997e-01 -3.653410243663951e+00 -9.308737486442041e+00
1.500000000000000e+00 -4.338837391175582e+00 -9.009688679024190e+00
1.500000000000000e+00 -4.999999999999999e+00 -8.660254037844386e+00
7.500000000000001e-01 -4.999999999999999e+00 -8.660254037844386e+00
7.500000000000000e-01 -4.338837391175582e+00 -9.009688679024190e+00
1.500000000000000e+00 -4.999999999999999e+00 -8.660254037844386e+00
1.500000000000000e+00 -5.633200580636220e+00 -8.262387743159948e+00
7.499999999999998e-01 -5.633200580636222e+00 -8.262387743159946e+00
7.500000000000001e-01 -4.999999999999999e+00 -8.660254037844386e+00
1.500000000000000e+00 -5.633200580636220e+00 -8.262387743159948e+00
1.500000000000000e+00 -6.234898018587335e+00 -7.818314824680296e+00
7.500000000000000e-01 -6.234898018587338e+00 -7.818314824680295e+00
7.499999999999998e-01 -5.633200580636222e+00 -8.262387743159946e+00
1.500000000000000e+00 -6.234898018587335e+00 -7.818314824680296e+00
1.500000000000000e+00 -6.801727377709192e+00 -7.330518718298262e+00
7.499999999999998e-01 -6.801727377709192e+00 -7.330518718298262e+00
7.500000000000000e-01 -6.234898018587338e+00 -7.818314824680295e+00
1.500000000000000e+00 -6.801727377709192e+00 -7.330518718298262e+00
1.500000000000000e+00 -7.330518718298262e+00 -6.801727377709192e+00
7.500000000000001e-01 -7.330518718298265e+00 -6.801727377709192e+00
7.499999999999998e-01 -6.801727377709192e+00 -7.330518718298262e+00
1.500000000000000e+00 -7.330518718298262e+00 -6.801727377709192e+00
1.500000000000000e+00 -7.818314824680296e+00 -6.234898018587334e+00
7.500000000000001e-01 -7.818314824680296e+00 -6.234898018587334e+00
7.500000000000001e-01 -7.330518718298265e+00 -6.801727377709192e+00
1.500000000000000e+00 -7.818314824680296e+00 -6.234898018587334e+00
1.500000000000000e+00 -8.262387743159948e+00 -5.633200580636220e+00
7.500000000000000e-01 -8.262387743159948e+00 -5.633200580636220e+00
7.500000000000001e-01 -7.818314824680296e+00 -6.234898018587334e+00
1.500000000000000e+00 -8.262387743159948e+00 -5.633200580636220e+00
1.500000000000000e+00 -8.660254037844386e+00 -5.000000000000000e+00
7.500000000000000e-01 -8.660254037844386e+00 -4.999999999999998e+00
7.500000000000000e-01 -8.262387743159948e+00 -5.633200580636220e+00
1.500000000000000e+00 -8.660254037844386e+00 -5.000000000000000e+00
1.500000000000000e+00 -9.009688679024190e+00 -4.338837391175581e+00
7.500000000000001e-01 -9.009688679024190e+00 -4.338837391175581e+00
7.500000000000000e-01 -8.660254037844386e+00 -4.999999999999998e+00
1.500000000000000e+00 -9.009688679024190e+00 -4.338837391175581e+00
1.500000000000000e+00 -9.308737486442043e+00 -3.653410243663951e+00
7.500000000000000e-01 -9.308737486442043e+00 -3.653410243663950e+00
7.500000000000001e-01 -9.009688679024190e+00 -4.338837391175581e+00
1.500000000000000e+00 -9.308737486442043e+00 -3.653410243663951e+00
1.500000000000000e+00 -9.555728057861405e+00 -2.947551744109043e+00
7.499999999999998e-01 -9.555728057861408e+00 -2.947551744109042e+00
7.500000000000000e-01 -9.308737486442043e+00 -3.653410243663950e+00
1.500000000000000e+00 -9.555728057861405e+00 -2.947551744109043e+00
1.500000000000000e+00 -9.749279121818235e+00 -2.225209339563144e+00
7.500000000000001e-01 -9.749279121818235e+00 -2.225209339563144e+00
7.499999999999998e-01 -9.555728057861408e+00 -2.947551744109042e+00
1.500000000000000e+00 -9.749279121818235e+00 -2.225209339563144e+00
1.500000000000000e+00 -9.888308262251284e+00 -1.490422661761746e+00
7.500000000000000e-01 -9.888308262251284e+00 -1.490422661761744e+00
7.500000000000001e-01 -9.749279121818235e+00 -2.225209339563144e+00
1.500000000000000e+00 -9.888308262251284e+00 -1.490422661761746e+00
1.500000000000000e+00 -9.972037971811801e+00 -7.473009358642433e-01
7.499999999999998e-01 -9.972037971811801e+00 -7.473009358642430e-01
7.500000000000000e-01 -9.888308262251284e+00 -1.490422661761744e+00
7.500000000000000e-01 0.000000000000000e+00 -1.000000000000000e+01
7.500000000000000e-01 -7.473009358642460e-01 -9.972037971811801e+00
0.000000000000000e+00 -7.473009358642437e-01 -9.972037971811801e+00
0.000000000000000e+00 0.000000000000000e+00 -1.000000000000000e+01
7.500000000000000e-01 -7.473009358642460e-01 -9.972037971811801e+00
7.500000000000000e-01 -1.490422661761744e+00 -9.888308262251284e+00
0.000000000000000e+00 -1.490422661761746e+00 -9.888308262251284e+00
0.000000000000000e+00 -7.473009358642437e-01 -9.972037971811801e+00
7.500000000000000e-01 -1.490422661761744e+00 -9.888308262251284e+00
7.499999999999998e-01 -2.225209339563144e+00 -9.749279121818235e+00
0.000000000000000e+00 -2.225209339563144e+00 -9.749279121818235e+00
0.000000000000000e+00 -1.490422661761746e+00 -9.888308262251284e+00
7.499999999999998e-01 -2.225209339563144e+00 -9.749279121818235e+00
7.499999999999998e-01 -2.947551744109040e+00 -9.555728057861408e+00
0.000000000000000e+00 -2.947551744109043e+00 -9.555728057861405e+00
0.000000000000000e+00 -2.225209339563144e+00 -9.749279121818235e+00
7.499999999999998e-01 -2.947551744109040e+00 -9.555728057861408e+00
7.499999999999997e-01 -3.653410243663951e+00 -9.308737486442041e+00
0.000000000000000e+00 -3.653410243663951e+00 -9.308737486442041e+00
0.000000000000000e+00 -2.947551744109043e+00 -9.555728057861405e+00
7.499999999999997e-01 -3.653410243663951e+00 -9.308737486442041e+00
7.500000000000000e-01 -4.338837391175582e+00 -9.009688679024190e+00
0.000000000000000e+00 -4.338837391175582e+00 -9.009688679024190e+00
0.000000000000000e+00 -3.653410243663951e+00 -9.308737486442041e+00
7.500000000000000e-01 -4.338837391175582e+00 -9.009688679024190e+00
7.500000000000001e-01 -4.999999999999999e+00 -8.660254037844386e+00
0.000000000000000e+00 -5.000000000000000e+00 -8.660254037844386e+00
0.000000000000000e+00 -4.338837391175582e+00 -9.009688679024190e+00
7.500000000000001e-01 -4.999999999999999e+00 -8.660254037844386e+00
7.499999999999998e-01 -5.633200580636222e+00 -8.262387743159946e+00
0.000000000000000e+00 -5.633200580636220e+00 -8.262387743159946e+00
0.000000000000000e+00 -5.000000000000000e+00 -8.660254037844386e+00
7.499999999999998e-01 -5.633200580636222e+00 -8.262387743159946e+00
7.500000000000000e-01 -6.234898018587338e+00 -7.818314824680295e+00
0.000000000000000e+00 -6.234898018587335e+00 -7.818314824680296e+00
0.000000000000000e+00 -5.633200580636220e+00 -8.262387743159946e+00
7.500000000000000e-01 -6.234898018587338e+00 -7.818314824680295e+00
7.499999999999998e-01 -6.801727377709192e+00 -7.330518718298262e+00
0.000000000000000e+00 -6.801727377709195e+00 -7.330518718298262e+00
0.000000000000000e+00 -6.234898018587335e+00 -7.818314824680296e+00
7.499999999999998e-01 -6.801727377709192e+00 -7.330518718298262e+00
7.500000000000001e-01 -7.330518718298265e+00 -6.801727377709192e+00
0.000000000000000e+00 -7.330518718298262e+00 -6.801727377709192e+00
0.000000000000000e+00 -6.801727377709195e+00 -7.330518718298262e+00
7.500000000000001e-01 -7.330518718298265e+00 -6.801727377709192e+00
7.500000000000001e-01 -7.818314824680296e+00 -6.234898018587334e+00
0.000000000000000e+00 -7.818314824680296e+00 -6.234898018587334e+00
0.000000000000000e+00 -7.330518718298262e+00 -6.801727377709192e+00
7.500000000000001e-01 -7.818314824680296e+00 -6.234898018587334e+00
7.500000000000000e-01 -8.262387743159948e+00 -5.633200580636220e+00
0.000000000000000e+00 -8.262387743159948e+00 -5.633200580636220e+00
0.000000000000000e+00 -7.818314824680296e+00 -6.234898018587334e+00
7.500000000000000e-01 -8.262387743159948e+00 -5.633200580636220e+00
7.500000000000000e-01 -8.660254037844386e+00 -4.999999999999998e+00
0.000000000000000e+00 -8.660254037844386e+00 -4.999999999999999e+00
0.000000000000000e+00 -8.262387743159948e+00 -5.633200580636220e+00
7.500000000000000e-01 -8.660254037844386e+00 -4.999999999999998e+00
7.500000000000001e-01 -9.009688679024190e+00 -4.338837391175581e+00
0.000000000000000e+00 -9.009688679024190e+00 -4.338837391175581e+00
0.000000000000000e+00 -8.660254037844386e+00 -4.999999999999999e+00
7.500000000000001e-01 -9.009688679024190e+00 -4.338837391175581e+00
7.500000000000000e-01 -9.308737486442043e+00 -3.653410243663950e+00
0.000000000000000e+00 -9.308737486442043e+00 -3.653410243663950e+00
0.000000000000000e+00 -9.009688679024190e+00 -4.338837391175581e+00
7.500000000000000e-01 -9.308737486442043e+00 -3.653410243663950e+00
7.499999999999998e-01 -9.555728057861408e+00 -2.947551744109042e+00
0.000000000000000e+00 -9.555728057861408e+00 -2.947551744109042e+00
0.000000000000000e+00 -9.308737486442043e+00 -3.653410243663950e+00
7.499999999999998e-01 -9.555728057861408e+00 -2.947551744109042e+00
7.500000000000001e-01 -9.749279121818235e+00 -2.225209339563144e+00
0.000000000000000e+00 -9.749279121818235e+00 -2.225209339563144e+00
0.000000000000000e+00 -9.555728057861408e+00 -2.947551744109042e+00
7.500000000000001e-01 -9.749279121818235e+00 -2.225209339563144e+00
7.500000000000000e-01 -9.888308262251284e+00 -1.490422661761744e+00
0.000000000000000e+00 -9.888308262251284e+00 -1.490422661761744e+00
0.000000000000000e+00 -9.749279121818235e+00 -2.225209339563144e+00
7.500000000000000e-01 -9.888308262251284e+00 -1.490422661761744e+00
7.499999999999998e-01 -9.972037971811801e+00 -7.473009358642430e-01
0.000000000000000e+00 -9.972037971811801e+00 -7.473009358642424e-01
0.000000000000000e+00 -9.888308262251284e+00 -1.490422661761744e+00
1.500000000000000e+00 5.633200580636220e+00 -8.262387743159948e+00
1.500000000000000e+00 5.000000000000000e+00 -8.660254037844386e+00
7.500000000000000e-01 4.999999999999998e+00 -8.660254037844386e+00
7.500000000000000e-01 5.633200580636220e+00 -8.262387743159948e+00
1.500000000000000e+00 5.000000000000000e+00 -8.660254037844386e+00
1.500000000000000e+00 4.338837391175581e+00 -9.009688679024190e+00
7.500000000000001e-01 4.338837391175581e+00 -9.009688679024190e+00
7.500000000000000e-01 4.999999999999998e+00 -8.660254037844386e+00
1.500000000000000e+00 4.338837391175581e+00 -9.009688679024190e+00
1.500000000000000e+00 3.653410243663951e+00 -9.308737486442043e+00
7.500000000000000e-01 3.653410243663950e+00 -9.308737486442043e+00
7.500000000000001e-01 4.338837391175581e+00 -9.009688679024190e+00
1.500000000000000e+00 3.653410243663951e+00 -9.308737486442043e+00
1.500000000000000e+00 2.947551744109043e+00 -9.555728057861405e+00
7.499999999999998e-01 2.947551744109042e+00 -9.555728057861408e+00
7.500000000000000e-01 3.653410243663950e+00 -9.308737486442043e+00
1.500000000000000e+00 2.947551744109043e+00 -9.555728057861405e+00
1.500000000000000e+00 2.225209339563144e+00 -9.749279121818235e+00
7.500000000000001e-01 2.225209339563144e+00 -9.749279121818235e+00
7.499999999999998e-01 2.947551744109042e+00 -9.555728057861408e+00
1.500000000000000e+00 2.225209339563144e+00 -9.749279121818235e+00
1.500000000000000e+00 1.490422661761746e+00 -9.888308262251284e+00
7.500000000000000e-01 1.490422661761744e+00 -9.888308262251284e+00
7.500000000000001e-01 2.225209339563144e+00 -9.749279121818235e+00
1.500000000000000e+00 1.490422661761746e+00 -9.888308262251284e+00
1.500000000000000e+00 7.473009358642433e-01 -9.972037971811801e+00
7.499999999999998e-01 7.473009358642430e-01 -9.972037971811801e+00
7.500000000000000e-01 1.490422661761744e+00 -9.888308262251284e+00
1.500000000000000e+00 7.473009358642433e-01 -9.972037971811801e+00
1.500000000000000e+00 0.000000000000000e+00 -1.000000000000000e+01
7.500000000000000e-01 0.000000000000000e+00 -1.000000000000000e+01
7.499999999999998e-01 7.473009358642430e-01 -9.972037971811801e+00
7.500000000000000e-01 5.633200580636220e+00 -8.262387743159948e+00
7.500000000000000e-01 4.999999999999998e+00 -8.660254037844386e+00
0.000000000000000e+00 4.999999999999999e+00 -8.660254037844386e+00
0.000000000000000e+00 5.633200580636220e+00 -8.262387743159948e+00
7.500000000000000e-01 4.999999999999998e+00 -8.660254037844386e+00
7.500000000000001e-01 4.338837391175581e+00 -9.009688679024190e+00
0.000000000000000e+00 4.338837391175581e+00 -9.009688679024190e+00
0.000000000000000e+00 4.999999999999999e+00 -8.660254037844386e+00
7.500000000000001e-01 4.338837391175581e+00 -9.009688679024190e+00
7.500000000000000e-01 3.653410243663950e+00 -9.308737486442043e+00
0.000000000000000e+00 3.653410243663950e+00 -9.308737486442043e+00
0.000000000000000e+00 4.338837391175581e+00 -9.009688679024190e+00
7.500000000000000e-01 3.653410243663950e+00 -9.308737486442043e+00
7.499999999999998e-01 2.947551744109042e+00 -9.555728057861408e+00
0.000000000000000e+00 2.947551744109042e+00 -9.555728057861408e+00
0.000000000000000e+00 3.653410243663950e+00 -9.308737486442043e+00
7.499999999999998e-01 2.947551744109042e+00 -9.555728057861408e+00
7.500000000000001e-01 2.225209339563144e+00 -9.749279121818235e+00
0.000000000000000e+00 2.225209339563144e+00 -9.749279121818235e+00
0.000000000000000e+00 2.947551744109042e+00 -9.555728057861408e+00
7.500000000000001e-01 2.225209339563144e+00 -9.749279121818235e+00
7.500000000000000e-01 1.490422661761744e+00 -9.888308262251284e+00
0.000000000000000e+00 1.490422661761744e+00 -9.888308262251284e+00
0.000000000000000e+00 2.225209339563144e+00 -9.749279121818235e+00
7.500000000000000e-01 1.490422661761744e+00 -9.888308262251284e+00
7.499999999999998e-01 7.473009358642430e-01 -9.972037971811801e+00
0.000000000000000e+00 7.473009358642424e-01 -9.972037971811801e+00
0.000000000000000e+00 1.490422661761744e+00 -9.888308262251284e+00
7.499999999999998e-01 7.473009358642430e-01 -9.972037971811801e+00
7.500000000000000e-01 0.000000000000000e+00 -1.000000000000000e+01
0.000000000000000e+00 0.000000000000000e+00 -1.000000000000000e+01
0.000000000000000e+00 7.473009358642424e-01 -9.972037971811801e+00
        </DataArray>
      </Points>

      <Cells>
        <DataArray type="Int32" Name="connectivity" format="ascii">
0 1 2 3 4 5 6 7 8 9 10 11 12 13 14 15 16 17 18 19 20 21 22 23 24 25 26 27 28 29 30 31 32 33 34 35 36 37 38 39 40 41 42 43 44 45 46 47 48 49 50 51 52 53 54 55 56 57 58 59 60 61 62 63 64 65 66 67 68 69 70 71 72 73 74 75 76 77 78 79 80 81 82 83 84 85 86 87 88 89 90 91 92 93 94 95 96 97 98 99 100 101 102 103 104 105 106 107 108 109 110 111 112 113 114 115 116 117 118 119 120 121 122 123 124 125 126 127 128 129 130 131 132 133 134 135 136 137 138 139 140 141 142 143 144 145 146 147 148 149 150 151 152 153 154 155 156 157 158 159 160 161 162 163 164 165 166 167 168 169 170 171 172 173 174 175 176 177 178 179 180 181 182 183 184 185 186 187 188 189 190 191 192 193 194 195 196 197 198 199 200 201 202 203 204 205 206 207 208 209 210 211 212 213 214 215 216 217 218 219 220 221 222 223 
        </DataArray>
        <DataArray type="Int32" Name="offsets" format="ascii">
4 8 12 16 20 24 28 32 36 40 44 48 52 56 60 64 68 72 76 80 84 88 92 96 100 104 108 112 116 120 124 128 132 136 140 144 148 152 156 160 164 168 172 176 180 184 188 192 196 200 204 208 212 216 220 224 
        </DataArray>
        <DataArray type="UInt8" Name="types" format="ascii">
9 9 9 9 9 9 9 9 9 9 9 9 9 9 9 9 9 9 9 9 9 9 9 9 9 9 9 9 9 9 9 9 9 9 9 9 9 9 9 9 9 9 9 9 9 9 9 9 9 9 9 9 9 9 9 9 
        </DataArray>
      </Cells>

  <PointData>
        <DataArray type="Float64" Name="displacement" NumberOfComponents="3" format="ascii">
0.000000000000000e+00 0.000000000000000e+00 -2.499313189160724e+00
0.000000000000000e+00 -1.867739085277660e-01 -2.492324602576079e+00
-7.102988771821146e-17 -1.867765763815175e-01 -2.492360202610326e+00
2.579758554034911e-17 -2.576792154562082e-16 -2.499348889019013e+00
0.000000000000000e+00 -1.867739085277660e-01 -2.492324602576079e+00
0.000000000000000e+00 -3.725033015965163e-01 -2.471397925833161e+00
9.563606428464696e-17 -3.725086223842983e-01 -2.471433226953530e+00
-7.102988771821146e-17 -1.867765763815175e-01 -2.492360202610326e+00
0.000000000000000e+00 -3.725033015965163e-01 -2.471397925833161e+00
0.000000000000000e+00 -5.561495051013796e-01 -2.436650189396961e+00
-8.934238824253263e-17 -5.561574490671883e-01 -2.436684994185268e+00
9.563606428464696e-17 -3.725086223842983e-01 -2.471433226953530e+00
0.000000000000000e+00 -5.561495051013796e-01 -2.436650189396961e+00
0.000000000000000e+00 -7.366854949785417e-01 -2.388275716704620e+00
-6.473511197726652e-17 -7.366960176964992e-01 -2.388309830518374e+00
-8.934238824253263e-17 -5.561574490671883e-01 -2.436684994185268e+00
0.000000000000000e+00 -7.366854949785417e-01 -2.388275716704620e+00
0.000000000000000e+00 -9.131016407404206e-01 -2.326545037429944e+00
4.670215479180748e-17 -9.131146833632188e-01 -2.326578269490856e+00
-6.473511197726652e-17 -7.366960176964992e-01 -2.388309830518374e+00
0.000000000000000e+00 -9.131016407404206e-01 -2.326545037429944e+00
0.000000000000000e+00 -1.084411351738885e+00 -2.251803374571723e+00
2.284572144342628e-18 -1.084426841326885e+00 -2.251835539032629e+00
4.670215479180748e-17 -9.131146833632188e-01 -2.326578269490856e+00
0.000000000000000e+00 -1.084411351738885e+00 -2.251803374571723e+00
0.000000000000000e+00 -1.249656594580363e+00 -2.164468713826690e+00
-2.027728382881680e-16 -1.249674444509509e+00 -2.164499630810881e+00
2.284572144342628e-18 -1.084426841326885e+00 -2.251835539032629e+00
0.000000000000000e+00 -1.249656594580363e+00 -2.164468713826690e+00
0.000000000000000e+00 -1.407913250837198e+00 -2.065029466043957e+00
3.527585754382736e-17 -1.407933361283441e+00 -2.065058962651113e+00
-2.027728382881680e-16 -1.249674444509509e+00 -2.164499630810881e+00
0.000000000000000e+00 -1.407913250837198e+00 -2.065029466043957e+00
0.000000000000000e+00 -1.558296285092741e+00 -1.954041735833427e+00
-7.110042449728777e-17 -1.558318543590313e+00 -1.954069647106558e+00
3.527585754382736e-17 -1.407933361283441e+00 -2.065058962651113e+00
0.000000000000000e+00 -1.558296285092741e+00 -1.954041735833427e+00
0.000000000000000e+00 -1.699964694418419e+00 -1.832126211603241e+00
-1.033362231561602e-16 -1.699988976488771e+00 -1.832152381451186e+00
-7.110042449728777e-17 -1.558318543590313e+00 -1.954069647106558e+00
0.000000000000000e+00 -1.699964694418419e+00 -1.832126211603241e+00
0.000000000000000e+00 -1.832126211603243e+00 -1.699964694418418e+00
-8.423764978485096e-17 -1.832152381451186e+00 -1.699988976488768e+00
-1.033362231561602e-16 -1.699988976488771e+00 -1.832152381451186e+00
0.000000000000000e+00 -1.832126211603243e+00 -1.699964694418418e+00
0.000000000000000e+00 -1.954041735833431e+00 -1.558296285092740e+00
-1.082326067378046e-16 -1.954069647106561e+00 -1.558318543590312e+00
-8.423764978485096e-17 -1.832152381451186e+00 -1.699988976488768e+00
0.000000000000000e+00 -1.954041735833431e+00 -1.558296285092740e+00
0.000000000000000e+00 -2.065029466043959e+00 -1.407913250837196e+00
3.952310752605273e-17 -2.065058962651113e+00 -1.407933361283441e+00
-1.082326067378046e-16 -1.954069647106561e+00 -1.558318543590312e+00
0.000000000000000e+00 -2.065029466043959e+00 -1.407913250837196e+00
0.000000000000000e+00 -2.164468713826689e+00 -1.249656594580361e+00
2.978748366446648e-17 -2.164499630810882e+00 -1.249674444509507e+00
3.952310752605273e-17 -2.065058962651113e+00 -1.407933361283441e+00
0.000000000000000e+00 -2.164468713826689e+00 -1.249656594580361e+00
0.000000000000000e+00 -2.251803374571724e+00 -1.084411351738884e+00
-1.019909944458723e-16 -2.251835539032631e+00 -1.084426841326884e+00
2.978748366446648e-17 -2.164499630810882e+00 -1.249674444509507e+00
0.000000000000000e+00 -2.251803374571724e+00 -1.084411351738884e+00
0.000000000000000e+00 -2.326545037429943e+00 -9.131016407404196e-01
1.358012596190881e-16 -2.326578269490856e+00 -9.131146833632172e-01
-1.019909944458723e-16 -2.251835539032631e+00 -1.084426841326884e+00
0.000000000000000e+00 -2.326545037429943e+00 -9.131016407404196e-01
0.000000000000000e+00 -2.388275716704623e+00 -7.366854949785427e-01
-4.101371845874001e-17 -2.388309830518372e+00 -7.366960176964981e-01
1.358012596190881e-16 -2.326578269490856e+00 -9.131146833632172e-01
0.000000000000000e+00 -2.388275716704623e+00 -7.366854949785427e-01
0.000000000000000e+00 -2.436650189396960e+00 -5.561495051013788e-01
4.348322425620262e-17 -2.436684994185268e+00 -5.561574490671873e-01
-4.101371845874001e-17 -2.388309830518372e+00 -7.366960176964981e-01
0.000000000000000e+00 -2.436650189396960e+00 -5.561495051013788e-01
0.000000000000000e+00 -2.471397925833162e+00 -3.725033015965160e-01
-8.260333685141507e-17 -2.471433226953530e+00 -3.725086223842978e-01
4.348322425620262e-17 -2.436684994185268e+00 -5.561574490671873e-01
0.000000000000000e+00 -2.471397925833162e+00 -3.725033015965160e-01
0.000000000000000e+00 -2.492324602576081e+00 -1.867739085277653e-01
-7.597532841552910e-17 -2.492360202610327e+00 -1.867765763815161e-01
-8.260333685141507e-17 -2.471433226953530e+00 -3.725086223842978e-01
2.579758554034911e-17 -2.576792154562082e-16 -2.499348889019013e+00
-7.102988771821146e-17 -1.867765763815175e-01 -2.492360202610326e+00
0.000000000000000e+00 -1.867739085277659e-01 -2.492324602576078e+00
0.000000000000000e+00 -2.423241779881957e-16 -2.499313189160724e+00
-7.102988771821146e-17 -1.867765763815175e-01 -2.492360202610326e+00
9.563606428464696e-17 -3.725086223842983e-01 -2.471433226953530e+00
0.000000000000000e+00 -3.725033015965170e-01 -2.471397925833160e+00
0.000000000000000e+00 -1.867739085277659e-01 -2.492324602576078e+00
9.563606428464696e-17 -3.725086223842983e-01 -2.471433226953530e+00
-8.934238824253263e-17 -5.561574490671883e-01 -2.436684994185268e+00
0.000000000000000e+00 -5.561495051013792e-01 -2.436650189396961e+00
0.000000000000000e+00 -3.725033015965170e-01 -2.471397925833160e+00
-8.934238824253263e-17 -5.561574490671883e-01 -2.436684994185268e+00
-6.473511197726652e-17 -7.366960176964992e-01 -2.388309830518374e+00
0.000000000000000e+00 -7.366854949785441e-01 -2.388275716704622e+00
0.000000000000000e+00 -5.561495051013792e-01 -2.436650189396961e+00
-6.473511197726652e-17 -7.366960176964992e-01 -2.388309830518374e+00
4.670215479180748e-17 -9.131146833632188e-01 -2.326578269490856e+00
0.000000000000000e+00 -9.131016407404217e-01 -2.326545037429945e+00
0.000000000000000e+00 -7.366854949785441e-01 -2.388275716704622e+00
4.670215479180748e-17 -9.131146833632188e-01 -2.326578269490856e+00
2.284572144342628e-18 -1.084426841326885e+00 -2.251835539032629e+00
0.000000000000000e+00 -1.084411351738884e+00 -2.251803374571724e+00
0.000000000000000e+00 -9.131016407404217e-01 -2.326545037429945e+00
2.284572144342628e-18 -1.084426841326885e+00 -2.251835539032629e+00
-2.027728382881680e-16 -1.249674444509509e+00 -2.164499630810881e+00
0.000000000000000e+00 -1.249656594580362e+00 -2.164468713826690e+00
0.000000000000000e+00 -1.084411351738884e+00 -2.251803374571724e+00
-2.027728382881680e-16 -1.249674444509509e+00 -2.164499630810881e+00
3.527585754382736e-17 -1.407933361283441e+00 -2.065058962651113e+00
0.000000000000000e+00 -1.407913250837197e+00 -2.065029466043958e+00
0.000000000000000e+00 -1.249656594580362e+00 -2.164468713826690e+00
3.527585754382736e-17 -1.407933361283441e+00 -2.065058962651113e+00
-7.110042449728777e-17 -1.558318543590313e+00 -1.954069647106558e+00
0.000000000000000e+00 -1.558296285092740e+00 -1.954041735833430e+00
0.000000000000000e+00 -1.407913250837197e+00 -2.065029466043958e+00
-7.110042449728777e-17 -1.558318543590313e+00 -1.954069647106558e+00
-1.033362231561602e-16 -1.699988976488771e+00 -1.832152381451186e+00
0.000000000000000e+00 -1.699964694418417e+00 -1.832126211603241e+00
0.000000000000000e+00 -1.558296285092740e+00 -1.954041735833430e+00
-1.033362231561602e-16 -1.699988976488771e+00 -1.832152381451186e+00
-8.423764978485096e-17 -1.832152381451186e+00 -1.699988976488768e+00
0.000000000000000e+00 -1.832126211603242e+00 -1.699964694418418e+00
0.000000000000000e+00 -1.699964694418417e+00 -1.832126211603241e+00
-8.423764978485096e-17 -1.832152381451186e+00 -1.699988976488768e+00
-1.082326067378046e-16 -1.954069647106561e+00 -1.558318543590312e+00
0.000000000000000e+00 -1.954041735833429e+00 -1.558296285092740e+00
0.000000000000000e+00 -1.832126211603242e+00 -1.699964694418418e+00
-1.082326067378046e-16 -1.954069647106561e+00 -1.558318543590312e+00
3.952310752605273e-17 -2.065058962651113e+00 -1.407933361283441e+00
0.000000000000000e+00 -2.065029466043959e+00 -1.407913250837196e+00
0.000000000000000e+00 -1.954041735833429e+00 -1.558296285092740e+00
3.952310752605273e-17 -2.065058962651113e+00 -1.407933361283441e+00
2.978748366446648e-17 -2.164499630810882e+00 -1.249674444509507e+00
0.000000000000000e+00 -2.164468713826691e+00 -1.249656594580361e+00
0.000000000000000e+00 -2.065029466043959e+00 -1.407913250837196e+00
2.978748366446648e-17 -2.164499630810882e+00 -1.249674444509507e+00
-1.019909944458723e-16 -2.251835539032631e+00 -1.084426841326884e+00
0.000000000000000e+00 -2.251803374571724e+00 -1.084411351738883e+00
0.000000000000000e+00 -2.164468713826691e+00 -1.249656594580361e+00
-1.019909944458723e-16 -2.251835539032631e+00 -1.084426841326884e+00
1.358012596190881e-16 -2.326578269490856e+00 -9.131146833632172e-01
0.000000000000000e+00 -2.326545037429944e+00 -9.131016407404194e-01
0.000000000000000e+00 -2.251803374571724e+00 -1.084411351738883e+00
1.358012596190881e-16 -2.326578269490856e+00 -9.131146833632172e-01
-4.101371845874001e-17 -2.388309830518372e+00 -7.366960176964981e-01
0.000000000000000e+00 -2.388275716704621e+00 -7.366854949785414e-01
0.000000000000000e+00 -2.326545037429944e+00 -9.131016407404194e-01
-4.101371845874001e-17 -2.388309830518372e+00 -7.366960176964981e-01
4.348322425620262e-17 -2.436684994185268e+00 -5.561574490671873e-01
0.000000000000000e+00 -2.436650189396961e+00 -5.561495051013784e-01
0.000000000000000e+00 -2.388275716704621e+00 -7.366854949785414e-01
4.348322425620262e-17 -2.436684994185268e+00 -5.561574490671873e-01
-8.260333685141507e-17 -2.471433226953530e+00 -3.725086223842978e-01
0.000000000000000e+00 -2.471397925833160e+00 -3.725033015965158e-01
0.000000000000000e+00 -2.436650189396961e+00 -5.561495051013784e-01
-8.260333685141507e-17 -2.471433226953530e+00 -3.725086223842978e-01
-7.597532841552910e-17 -2.492360202610327e+00 -1.867765763815161e-01
0.000000000000000e+00 -2.492324602576078e+00 -1.867739085277648e-01
0.000000000000000e+00 -2.471397925833160e+00 -3.725033015965158e-01
0.000000000000000e+00 1.407913250837195e+00 -2.065029466043958e+00
0.000000000000000e+00 1.249656594580361e+00 -2.164468713826690e+00
-5.344128527126900e-18 1.249674444509507e+00 -2.164499630810882e+00
1.484108454247681e-16 1.407933361283441e+00 -2.065058962651115e+00
0.000000000000000e+00 1.249656594580361e+00 -2.164468713826690e+00
0.000000000000000e+00 1.084411351738884e+00 -2.251803374571722e+00
1.532277461399067e-17 1.084426841326884e+00 -2.251835539032631e+00
-5.344128527126900e-18 1.249674444509507e+00 -2.164499630810882e+00
0.000000000000000e+00 1.084411351738884e+00 -2.251803374571722e+00
0.000000000000000e+00 9.131016407404206e-01 -2.326545037429944e+00
1.593857717536864e-16 9.131146833632174e-01 -2.326578269490858e+00
1.532277461399067e-17 1.084426841326884e+00 -2.251835539032631e+00
0.000000000000000e+00 9.131016407404206e-01 -2.326545037429944e+00
0.000000000000000e+00 7.366854949785427e-01 -2.388275716704622e+00
-3.248545488780208e-17 7.366960176964985e-01 -2.388309830518372e+00
1.593857717536864e-16 9.131146833632174e-01 -2.326578269490858e+00
0.000000000000000e+00 7.366854949785427e-01 -2.388275716704622e+00
0.000000000000000e+00 5.561495051013785e-01 -2.436650189396960e+00
2.509945890257303e-17 5.561574490671879e-01 -2.436684994185270e+00
-3.248545488780208e-17 7.366960176964985e-01 -2.388309830518372e+00
0.000000000000000e+00 5.561495051013785e-01 -2.436650189396960e+00
0.000000000000000e+00 3.725033015965161e-01 -2.471397925833162e+00
9.165823499280542e-17 3.725086223842976e-01 -2.471433226953530e+00
2.509945890257303e-17 5.561574490671879e-01 -2.436684994185270e+00
0.000000000000000e+00 3.725033015965161e-01 -2.471397925833162e+00
0.000000000000000e+00 1.867739085277654e-01 -2.492324602576078e+00
-1.030361256490696e-16 1.867765763815163e-01 -2.492360202610325e+00
9.165823499280542e-17 3.725086223842976e-01 -2.471433226953530e+00