<?xml version="1.0" ?> 
<!-- 
# vtk DataFile Version 3.0
-->
<VTKFile type="UnstructuredGrid" version="0.1" compressor="vtkZLibDataCompressor" byte_order="LittleEndian">
  <UnstructuredGrid>
    <FieldData>
      <DataArray type="Float64" Name="TIME" NumberOfTuples="1" format="ascii">
5.000000000000000e+00 
      </DataArray>
    </FieldData>

    <Piece NumberOfPoints="24" NumberOfCells="3" >
      <Points>
        <DataArray type="Float64" NumberOfComponents="3" format="ascii">
1.000000000000000e+01 0.000000000000000e+00 5.000000000000000e-01
1.000000000000000e+01 1.000000000000000e+00 5.000000000000000e-01
1.000000000000000e+01 1.000000000000000e+00 -5.000000000000000e-01
1.000000000000000e+01 0.000000000000000e+00 -5.000000000000000e-01
6.666666510000000e+00 0.000000000000000e+00 5.000000000000000e-01
6.666666510000000e+00 1.000000000000000e+00 5.000000000000000e-01
6.666666510000000e+00 1.000000000000000e+00 -5.000000000000000e-01
6.666666510000000e+00 0.000000000000000e+00 -5.000000000000000e-01
6.666666510000000e+00 0.000000000000000e+00 5.000000000000000e-01
6.666666510000000e+00 1.000000000000000e+00 5.000000000000000e-01
6.666666510000000e+00 1.000000000000000e+00 -5.000000000000000e-01
6.666666510000000e+00 0.000000000000000e+00 -5.000000000000000e-01
3.333333250000000e+00 0.000000000000000e+00 5.000000000000000e-01
3.333333250000000e+00 1.000000000000000e+00 5.000000000000000e-01
3.333333250000000e+00 1.000000000000000e+00 -5.000000000000000e-01
3.333333250000000e+00 0.000000000000000e+00 -5.000000000000000e-01
3.333333250000000e+00 0.000000000000000e+00 5.000000000000000e-01
3.333333250000000e+00 1.000000000000000e+00 5.000000000000000e-01
3.333333250000000e+00 1.000000000000000e+00 -5.000000000000000e-01
3.333333250000000e+00 0.000000000000000e+00 -5.000000000000000e-01
0.000000000000000e+00 0.000000000000000e+00 5.000000000000000e-01
0.000000000000000e+00 1.000000000000000e+00 5.000000000000000e-01
0.000000000000000e+00 1.000000000000000e+00 -5.000000000000000e-01
0.000000000000000e+00 0.000000000000000e+00 -5.000000000000000e-01
        </DataArray>
      </Points>

      <Cells>
        <DataArray type="Int32" Name="connectivity" format="ascii">
0 1 2 3 4 5 6 7 8 9 10 11 12 13 14 15 16 17 18 19 20 21 22 23 
        </DataArray>
        <DataArray type="Int32" Name="offsets" format="ascii">
8 16 24 
        </DataArray>
        <DataArray type="UInt8" Name="types" format="ascii">
12 12 12 
        </DataArray>
      </Cells>

  <PointData>
        <DataArray type="Float64" Name="conductivity" format="ascii">
5.200000000000000e+01
5.200000000000000e+01
5.200000000000000e+01
5.200000000000000e+01
5.200000000000000e+01
5.200000000000000e+01
5.200000000000000e+01
5.200000000000000e+01
5.200000000000000e+01
5.200000000000000e+01
5.200000000000000e+01
5.200000000000000e+01
5.200000000000000e+01
5.200000000000000e+01
5.200000000000000e+01
5.200000000000000e+01
5.200000000000000e+01
5.200000000000000e+01
5.200000000000000e+01
5.200000000000000e+01
5.200000000000000e+01
5.200000000000000e+01
5.200000000000000e+01
5.200000000000000e+01
        </DataArray>
        <DataArray type="Int32" Name="node_gid" format="ascii">
0
1
2
3
4
5
6
7
4
5
6
7
8
9
10
11
8
9
10
11
12
13
14
15
        </DataArray>
        <DataArray type="Float64" Name="temperature" format="ascii">
3.827136888748613e+03
3.827136888748613e+03
3.827136888748613e+03
3.827136888748613e+03
2.548337871399395e+03
2.548337871399395e+03
2.548337871399395e+03
2.548337871399395e+03
2.548337871399395e+03
2.548337871399395e+03
2.548337871399395e+03
2.548337871399395e+03
1.273600959809457e+03
1.273600959809457e+03
1.273600959809457e+03
1.273600959809457e+03
1.273600959809457e+03
1.273600959809457e+03
1.273600959809457e+03
1.273600959809457e+03
0.000000000000000e+00
0.000000000000000e+00
0.000000000000000e+00
0.000000000000000e+00
        </DataArray>
        <DataArray type="Float64" Name="temperature_rate" format="ascii">
0.000000000000000e+00
0.000000000000000e+00
0.000000000000000e+00
0.000000000000000e+00
0.000000000000000e+00
0.000000000000000e+00
0.000000000000000e+00
0.000000000000000e+00
0.000000000000000e+00
0.000000000000000e+00
0.000000000000000e+00
0.000000000000000e+00
0.000000000000000e+00
0.000000000000000e+00
0.000000000000000e+00
0.000000000000000e+00
0.000000000000000e+00
0.000000000000000e+00
0.000000000000000e+00
0.000000000000000e+00
0.000000000000000e+00
0.000000000000000e+00
0.000000000000000e+00
0.000000000000000e+00
        </DataArray>
  </PointData>
  <CellData>
        <DataArray type="Float64" Name="element_gid" format="ascii">
0.000000000000000e+00
1.000000000000000e+00
2.000000000000000e+00
        </DataArray>
        <DataArray type="Float64" Name="element_owner" format="ascii">
0.000000000000000e+00
0.000000000000000e+00
0.000000000000000e+00
        </DataArray>
      </CellData>

    </Piece>
  </UnstructuredGrid>
</VTKFile>
