<?xml version="1.0" ?> 
<!-- 
# vtk DataFile Version 3.0
-->
<VTKFile type="UnstructuredGrid" version="0.1" compressor="vtkZLibDataCompressor" byte_order="LittleEndian">
  <UnstructuredGrid>
    <FieldData>
      <DataArray type="Float64" Name="TIME" NumberOfTuples="1" format="ascii">
5.000000000000000e-04 
      </DataArray>
    </FieldData>

    <Piece NumberOfPoints="150" NumberOfCells="0" >
      <Points>
        <DataArray type="Float64" NumberOfComponents="3" format="ascii">
-2.497166011050177e+01 0.000000000000000e+00 0.000000000000000e+00
-2.497166011050178e+01 3.000000000000000e+00 0.000000000000000e+00
-2.485079923580227e+01 0.000000000000000e+00 0.000000000000000e+00
-2.485079923580226e+01 3.000000000000000e+00 0.000000000000000e+00
-2.463385210120015e+01 0.000000000000000e+00 0.000000000000000e+00
-2.463385210120015e+01 3.000000000000000e+00 0.000000000000000e+00
-2.432160962766730e+01 0.000000000000000e+00 0.000000000000000e+00
-2.432160962766730e+01 3.000000000000000e+00 0.000000000000000e+00
-2.391527388107020e+01 0.000000000000000e+00 0.000000000000000e+00
-2.391527388107020e+01 3.000000000000000e+00 0.000000000000000e+00
-2.341641547362195e+01 0.000000000000000e+00 0.000000000000000e+00
-2.341641547362195e+01 3.000000000000000e+00 0.000000000000000e+00
-2.282696391639479e+01 0.000000000000000e+00 0.000000000000000e+00
-2.282696391639479e+01 3.000000000000000e+00 0.000000000000000e+00
-2.214919948809032e+01 0.000000000000000e+00 0.000000000000000e+00
-2.214919948809032e+01 3.000000000000000e+00 0.000000000000000e+00
-2.138574423574864e+01 0.000000000000000e+00 0.000000000000000e+00
-2.138574423574864e+01 3.000000000000000e+00 0.000000000000000e+00
-2.053955177148340e+01 0.000000000000000e+00 0.000000000000000e+00
-2.053955177148340e+01 3.000000000000000e+00 0.000000000000000e+00
-1.961389582250998e+01 0.000000000000000e+00 0.000000000000000e+00
-1.961389582250997e+01 3.000000000000000e+00 0.000000000000000e+00
-1.861235755565171e+01 0.000000000000000e+00 0.000000000000000e+00
-1.861235755565171e+01 3.000000000000000e+00 0.000000000000000e+00
-1.753881171767056e+01 0.000000000000000e+00 0.000000000000000e+00
-1.753881171767057e+01 3.000000000000000e+00 0.000000000000000e+00
-1.639741164213598e+01 0.000000000000000e+00 0.000000000000000e+00
-1.639741164213597e+01 3.000000000000000e+00 0.000000000000000e+00
-1.519257317962376e+01 0.000000000000000e+00 0.000000000000000e+00
-1.519257317962377e+01 3.000000000000000e+00 0.000000000000000e+00
-1.392895761286626e+01 0.000000000000000e+00 0.000000000000000e+00
-1.392895761286626e+01 3.000000000000000e+00 0.000000000000000e+00
-1.261145362268661e+01 0.000000000000000e+00 0.000000000000000e+00
-1.261145362268660e+01 3.000000000000000e+00 0.000000000000000e+00
-1.124515837435097e+01 0.000000000000000e+00 0.000000000000000e+00
-1.124515837435098e+01 3.000000000000000e+00 0.000000000000000e+00
-9.835357797439130e+00 0.000000000000000e+00 0.000000000000000e+00
-9.835357797439132e+00 3.000000000000000e+00 0.000000000000000e+00
-8.387506135485935e+00 0.000000000000000e+00 0.000000000000000e+00
-8.387506135485921e+00 3.000000000000000e+00 0.000000000000000e+00
-6.907204844488303e+00 0.000000000000000e+00 0.000000000000000e+00
-6.907204844488303e+00 3.000000000000000e+00 0.000000000000000e+00
-5.400180921901042e+00 0.000000000000000e+00 0.000000000000000e+00
-5.400180921901033e+00 3.000000000000000e+00 0.000000000000000e+00
-3.872264749953648e+00 0.000000000000000e+00 0.000000000000000e+00
-3.872264749953648e+00 3.000000000000000e+00 0.000000000000000e+00
-2.329367539002154e+00 0.000000000000000e+00 0.000000000000000e+00
-2.329367539002156e+00 3.000000000000000e+00 0.000000000000000e+00
-7.774584581797210e-01 0.000000000000000e+00 0.000000000000000e+00
-7.774584581797219e-01 3.000000000000000e+00 0.000000000000000e+00
7.774584581797210e-01 0.000000000000000e+00 0.000000000000000e+00
7.774584581797148e-01 3.000000000000000e+00 0.000000000000000e+00
2.329367539002154e+00 0.000000000000000e+00 0.000000000000000e+00
2.329367539002154e+00 3.000000000000000e+00 0.000000000000000e+00
3.872264749953648e+00 0.000000000000000e+00 0.000000000000000e+00
3.872264749953647e+00 3.000000000000000e+00 0.000000000000000e+00
5.400180921901044e+00 0.000000000000000e+00 0.000000000000000e+00
5.400180921901045e+00 3.000000000000000e+00 0.000000000000000e+00
6.907204844488303e+00 0.000000000000000e+00 0.000000000000000e+00
6.907204844488303e+00 3.000000000000000e+00 0.000000000000000e+00
8.387506135485935e+00 0.000000000000000e+00 0.000000000000000e+00
8.387506135485939e+00 3.000000000000000e+00 0.000000000000000e+00
9.835357797439130e+00 0.000000000000000e+00 0.000000000000000e+00
9.835357797439132e+00 3.000000000000000e+00 0.000000000000000e+00
1.124515837435097e+01 0.000000000000000e+00 0.000000000000000e+00
1.124515837435097e+01 3.000000000000000e+00 0.000000000000000e+00
1.261145362268661e+01 0.000000000000000e+00 0.000000000000000e+00
1.261145362268661e+01 3.000000000000000e+00 0.000000000000000e+00
1.392895761286625e+01 0.000000000000000e+00 0.000000000000000e+00
1.392895761286625e+01 3.000000000000000e+00 0.000000000000000e+00
1.519257317962376e+01 0.000000000000000e+00 0.000000000000000e+00
1.519257317962376e+01 3.000000000000000e+00 0.000000000000000e+00
1.639741164213599e+01 0.000000000000000e+00 0.000000000000000e+00
1.639741164213599e+01 3.000000000000000e+00 0.000000000000000e+00
1.753881171767056e+01 0.000000000000000e+00 0.000000000000000e+00
1.753881171767056e+01 3.000000000000000e+00 0.000000000000000e+00
1.861235755565171e+01 0.000000000000000e+00 0.000000000000000e+00
1.861235755565171e+01 3.000000000000000e+00 0.000000000000000e+00
1.961389582250998e+01 0.000000000000000e+00 0.000000000000000e+00
1.961389582250998e+01 3.000000000000000e+00 0.000000000000000e+00
2.053955177148340e+01 0.000000000000000e+00 0.000000000000000e+00
2.053955177148340e+01 3.000000000000000e+00 0.000000000000000e+00
2.138574423574864e+01 0.000000000000000e+00 0.000000000000000e+00
2.138574423574864e+01 3.000000000000000e+00 0.000000000000000e+00
2.214919948809032e+01 0.000000000000000e+00 0.000000000000000e+00
2.214919948809032e+01 3.000000000000000e+00 0.000000000000000e+00
2.282696391639479e+01 0.000000000000000e+00 0.000000000000000e+00
2.282696391639479e+01 3.000000000000000e+00 0.000000000000000e+00
2.341641547362195e+01 0.000000000000000e+00 0.000000000000000e+00
2.341641547362195e+01 3.000000000000000e+00 0.000000000000000e+00
2.391527388107020e+01 0.000000000000000e+00 0.000000000000000e+00
2.391527388107020e+01 3.000000000000000e+00 0.000000000000000e+00
2.432160962766730e+01 0.000000000000000e+00 0.000000000000000e+00
2.432160962766731e+01 3.000000000000000e+00 0.000000000000000e+00
2.463385210120015e+01 0.000000000000000e+00 0.000000000000000e+00
2.463385210120015e+01 3.000000000000000e+00 0.000000000000000e+00
2.485079923580227e+01 0.000000000000000e+00 0.000000000000000e+00
2.485079923580226e+01 3.000000000000000e+00 0.000000000000000e+00
2.497166011050177e+01 0.000000000000000e+00 0.000000000000000e+00
2.497166011050178e+01 3.000000000000000e+00 0.000000000000000e+00
-2.494332022100355e+01 0.000000000000000e+00 0.000000000000000e+00
-2.494332022100355e+01 3.000000000000000e+00 0.000000000000000e+00
-2.470159847160454e+01 0.000000000000000e+00 0.000000000000000e+00
-2.470159847160453e+01 3.000000000000000e+00 0.000000000000000e+00
-2.426770420240030e+01 0.000000000000000e+00 0.000000000000000e+00
-2.426770420240030e+01 3.000000000000000e+00 0.000000000000000e+00
-2.364321925533460e+01 0.000000000000000e+00 0.000000000000000e+00
-2.364321925533461e+01 3.000000000000000e+00 0.000000000000000e+00
-2.283054776214040e+01 0.000000000000000e+00 0.000000000000000e+00
-2.283054776214040e+01 3.000000000000000e+00 0.000000000000000e+00
-2.183283094724390e+01 0.000000000000000e+00 0.000000000000000e+00
-2.183283094724391e+01 3.000000000000000e+00 0.000000000000000e+00
-2.065392783278958e+01 0.000000000000000e+00 0.000000000000000e+00
-2.065392783278958e+01 3.000000000000000e+00 0.000000000000000e+00
-1.929839897618065e+01 0.000000000000000e+00 0.000000000000000e+00
-1.929839897618065e+01 3.000000000000000e+00 0.000000000000000e+00
-1.777148847149730e+01 0.000000000000000e+00 0.000000000000000e+00
-1.777148847149730e+01 3.000000000000000e+00 0.000000000000000e+00
-1.607910354296680e+01 0.000000000000000e+00 0.000000000000000e+00
-1.607910354296680e+01 3.000000000000000e+00 0.000000000000000e+00
-1.422779164501996e+01 0.000000000000000e+00 0.000000000000000e+00
-1.422779164501997e+01 3.000000000000000e+00 0.000000000000000e+00
-1.222471511130342e+01 0.000000000000000e+00 0.000000000000000e+00
-1.222471511130343e+01 3.000000000000000e+00 0.000000000000000e+00
-1.007762343534111e+01 0.000000000000000e+00 0.000000000000000e+00
-1.007762343534111e+01 3.000000000000000e+00 0.000000000000000e+00
-7.794823284271967e+00 0.000000000000000e+00 0.000000000000000e+00
-7.794823284271967e+00 3.000000000000000e+00 0.000000000000000e+00
-5.385146359247518e+00 0.000000000000000e+00 0.000000000000000e+00
-5.385146359247519e+00 3.000000000000000e+00 0.000000000000000e+00
-2.857915225732510e+00 0.000000000000000e+00 0.000000000000000e+00
-2.857915225732511e+00 3.000000000000000e+00 0.000000000000000e+00
-2.229072453732170e-01 0.000000000000000e+00 0.000000000000000e+00
-2.229072453732170e-01 3.000000000000000e+00 0.000000000000000e+00
2.509683251298060e+00 0.000000000000000e+00 0.000000000000000e+00
2.509683251298060e+00 3.000000000000000e+00 0.000000000000000e+00
5.329284405121740e+00 0.000000000000000e+00 0.000000000000000e+00
5.329284405121740e+00 3.000000000000000e+00 0.000000000000000e+00
8.224987729028131e+00 0.000000000000000e+00 0.000000000000000e+00
8.224987729028131e+00 3.000000000000000e+00 0.000000000000000e+00
1.118559031102339e+01 0.000000000000000e+00 0.000000000000000e+00
1.118559031102339e+01 3.000000000000000e+00 0.000000000000000e+00
1.419963815619791e+01 0.000000000000000e+00 0.000000000000000e+00
1.419963815619791e+01 3.000000000000000e+00 0.000000000000000e+00
1.725547050009271e+01 0.000000000000000e+00 0.000000000000000e+00
1.725547050009271e+01 3.000000000000000e+00 0.000000000000000e+00
2.034126492199569e+01 0.000000000000000e+00 0.000000000000000e+00
2.034126492199569e+01 3.000000000000000e+00 0.000000000000000e+00
2.344508308364056e+01 0.000000000000000e+00 0.000000000000000e+00
2.344508308364056e+01 3.000000000000000e+00 0.000000000000000e+00
        </DataArray>
      </Points>

      <Cells>
        <DataArray type="Int32" Name="connectivity" format="ascii">

        </DataArray>
        <DataArray type="Int32" Name="offsets" format="ascii">

        </DataArray>
        <DataArray type="UInt8" Name="types" format="ascii">

        </DataArray>
      </Cells>

  <PointData>
        <DataArray type="Float64" Name="force" NumberOfComponents="3" format="ascii">
6.024695271478208e-01 8.536984975962118e-03 0.000000000000000e+00
-6.024695271478208e-01 -8.536984975962118e-03 0.000000000000000e+00
3.171318409900336e+00 2.366008182676705e-01 0.000000000000000e+00
-3.171318409900336e+00 -2.366008182676705e-01 0.000000000000000e+00
7.776251264067066e+00 1.424327104309540e+00 0.000000000000000e+00
-7.776251264067066e+00 -1.424327104309540e+00 0.000000000000000e+00
1.437331601299633e+01 4.883577855887964e+00 0.000000000000000e+00
-1.437331601299633e+01 -4.883577855887964e+00 0.000000000000000e+00
2.286216068579622e+01 1.245319958892083e+01 0.000000000000000e+00
-2.286216068579622e+01 -1.245319958892083e+01 0.000000000000000e+00
3.305134495277677e+01 2.641236151543925e+01 0.000000000000000e+00
-3.305134495277677e+01 -2.641236151543925e+01 0.000000000000000e+00
4.461785330616677e+01 4.933259444990545e+01 0.000000000000000e+00
-4.461785330616677e+01 -4.933259444990545e+01 0.000000000000000e+00
5.706748504211402e+01 8.384992684715415e+01 0.000000000000000e+00
-5.706748504211402e+01 -8.384992684715415e+01 0.000000000000000e+00
6.970451529000684e+01 1.323456709806115e+02 0.000000000000000e+00
-6.970451529000684e+01 -1.323456709806115e+02 0.000000000000000e+00
8.162099229210685e+01 1.965390324118808e+02 0.000000000000000e+00
-8.162099229210685e+01 -1.965390324118808e+02 0.000000000000000e+00
9.171691348251237e+01 2.770168867118911e+02 0.000000000000000e+00
-9.171691348251237e+01 -2.770168867118911e+02 0.000000000000000e+00
9.876131201899696e+01 3.727537953743409e+02 0.000000000000000e+00
-9.876131201899696e+01 -3.727537953743409e+02 0.000000000000000e+00
1.015001118307943e+02 4.807038667446431e+02 0.000000000000000e+00
-1.015001118307943e+02 -4.807038667446431e+02 0.000000000000000e+00
9.880905272760177e+01 5.955678466981798e+02 0.000000000000000e+00
-9.880905272760177e+01 -5.955678466981798e+02 0.000000000000000e+00
8.987947769085575e+01 7.098444793033538e+02 0.000000000000000e+00
-8.987947769085575e+01 -7.098444793033538e+02 0.000000000000000e+00
7.441288907725520e+01 8.142558034917774e+02 0.000000000000000e+00
-7.441288907725520e+01 -8.142558034917774e+02 0.000000000000000e+00
5.278965830181870e+01 8.985865040707843e+02 0.000000000000000e+00
-5.278965830181870e+01 -8.985865040707843e+02 0.000000000000000e+00
2.617159630585815e+01 9.528998265871347e+02 0.000000000000000e+00
-2.617159630585815e+01 -9.528998265871347e+02 0.000000000000000e+00
-5.739330163089846e-13 9.692866943942881e+02 0.000000000000000e+00
5.739330163089846e-13 -9.692866943942881e+02 0.000000000000000e+00
4.591464130471885e-12 9.692866943942896e+02 0.000000000000000e+00
-4.591464130471885e-12 -9.692866943942896e+02 0.000000000000000e+00
0.000000000000000e+00 9.692866943942890e+02 0.000000000000000e+00
0.000000000000000e+00 -9.692866943942890e+02 0.000000000000000e+00
3.156631589699419e-12 9.692866943942890e+02 0.000000000000000e+00
-3.156631589699419e-12 -9.692866943942890e+02 0.000000000000000e+00
1.434832540772463e-13 9.692866943942890e+02 0.000000000000000e+00
-1.434832540772463e-13 -9.692866943942890e+02 0.000000000000000e+00
-5.739330163089853e-13 9.692866943942890e+02 0.000000000000000e+00
5.739330163089853e-13 -9.692866943942890e+02 0.000000000000000e+00
-2.869665081544926e-13 9.692866943942890e+02 0.000000000000000e+00
2.869665081544926e-13 -9.692866943942890e+02 0.000000000000000e+00
-2.008765557081448e-12 9.692866943942890e+02 0.000000000000000e+00
2.008765557081448e-12 -9.692866943942890e+02 0.000000000000000e+00
2.869665081544923e-13 9.692866943942881e+02 0.000000000000000e+00
-2.869665081544923e-13 -9.692866943942881e+02 0.000000000000000e+00
-2.869665081544923e-13 9.692866943942881e+02 0.000000000000000e+00
2.869665081544923e-13 -9.692866943942881e+02 0.000000000000000e+00
2.869665081544926e-13 9.692866943942890e+02 0.000000000000000e+00
-2.869665081544926e-13 -9.692866943942890e+02 0.000000000000000e+00
0.000000000000000e+00 9.692866943942890e+02 0.000000000000000e+00
0.000000000000000e+00 -9.692866943942890e+02 0.000000000000000e+00
1.147866032617969e-12 9.692866943942881e+02 0.000000000000000e+00
-1.147866032617969e-12 -9.692866943942881e+02 0.000000000000000e+00
5.739330163089853e-13 9.692866943942890e+02 0.000000000000000e+00
-5.739330163089853e-13 -9.692866943942890e+02 0.000000000000000e+00
-5.739330163089853e-13 9.692866943942890e+02 0.000000000000000e+00
5.739330163089853e-13 -9.692866943942890e+02 0.000000000000000e+00
0.000000000000000e+00 9.692866943942890e+02 0.000000000000000e+00
0.000000000000000e+00 -9.692866943942890e+02 0.000000000000000e+00
-1.147866032617969e-12 9.692866943942881e+02 0.000000000000000e+00
1.147866032617969e-12 -9.692866943942881e+02 0.000000000000000e+00
5.739330163089853e-13 9.692866943942890e+02 0.000000000000000e+00
-5.739330163089853e-13 -9.692866943942890e+02 0.000000000000000e+00
0.000000000000000e+00 9.692866943942890e+02 0.000000000000000e+00
0.000000000000000e+00 -9.692866943942890e+02 0.000000000000000e+00
1.147866032617971e-12 9.692866943942890e+02 0.000000000000000e+00
-1.147866032617971e-12 -9.692866943942890e+02 0.000000000000000e+00
0.000000000000000e+00 9.692866943942890e+02 0.000000000000000e+00
0.000000000000000e+00 -9.692866943942890e+02 0.000000000000000e+00
-1.147866032617971e-12 9.692866943942890e+02 0.000000000000000e+00
1.147866032617971e-12 -9.692866943942890e+02 0.000000000000000e+00
0.000000000000000e+00 9.692866943942890e+02 0.000000000000000e+00
0.000000000000000e+00 -9.692866943942890e+02 0.000000000000000e+00
-1.147866032617971e-12 9.692866943942890e+02 0.000000000000000e+00
1.147866032617971e-12 -9.692866943942890e+02 0.000000000000000e+00
0.000000000000000e+00 9.692866943942890e+02 0.000000000000000e+00
0.000000000000000e+00 -9.692866943942890e+02 0.000000000000000e+00
0.000000000000000e+00 9.692866943942890e+02 0.000000000000000e+00
0.000000000000000e+00 -9.692866943942890e+02 0.000000000000000e+00
0.000000000000000e+00 9.692866943942890e+02 0.000000000000000e+00
0.000000000000000e+00 -9.692866943942890e+02 0.000000000000000e+00
-1.147866032617971e-12 9.692866943942890e+02 0.000000000000000e+00
1.147866032617971e-12 -9.692866943942890e+02 0.000000000000000e+00
1.147866032617971e-12 9.692866943942890e+02 0.000000000000000e+00
-1.147866032617971e-12 -9.692866943942890e+02 0.000000000000000e+00
0.000000000000000e+00 9.692866943942890e+02 0.000000000000000e+00
0.000000000000000e+00 -9.692866943942890e+02 0.000000000000000e+00
-3.443598097853912e-12 9.692866943942890e+02 0.000000000000000e+00
3.443598097853912e-12 -9.692866943942890e+02 0.000000000000000e+00
2.295732065235941e-12 9.692866943942890e+02 0.000000000000000e+00
-2.295732065235941e-12 -9.692866943942890e+02 0.000000000000000e+00
1.147866032617971e-12 9.692866943942890e+02 0.000000000000000e+00
-1.147866032617971e-12 -9.692866943942890e+02 0.000000000000000e+00
1.147866032617971e-12 9.692866943942890e+02 0.000000000000000e+00
-1.147866032617971e-12 -9.692866943942890e+02 0.000000000000000e+00
0.000000000000000e+00 9.692866943942890e+02 0.000000000000000e+00
0.000000000000000e+00 -9.692866943942890e+02 0.000000000000000e+00
-2.295732065235941e-12 9.692866943942890e+02 0.000000000000000e+00
2.295732065235941e-12 -9.692866943942890e+02 0.000000000000000e+00
0.000000000000000e+00 9.692866943942890e+02 0.000000000000000e+00
0.000000000000000e+00 -9.692866943942890e+02 0.000000000000000e+00
-1.147866032617971e-12 9.692866943942890e+02 0.000000000000000e+00
1.147866032617971e-12 -9.692866943942890e+02 0.000000000000000e+00
-2.295732065235943e-12 9.692866943942896e+02 0.000000000000000e+00
2.295732065235943e-12 -9.692866943942896e+02 0.000000000000000e+00
0.000000000000000e+00 9.692866943942890e+02 0.000000000000000e+00
0.000000000000000e+00 -9.692866943942890e+02 0.000000000000000e+00
2.295732065235943e-12 9.692866943942896e+02 0.000000000000000e+00
-2.295732065235943e-12 -9.692866943942896e+02 0.000000000000000e+00
-1.147866032617969e-12 9.692866943942881e+02 0.000000000000000e+00
1.147866032617969e-12 -9.692866943942881e+02 0.000000000000000e+00
-2.295732065235941e-12 9.692866943942890e+02 0.000000000000000e+00
2.295732065235941e-12 -9.692866943942890e+02 0.000000000000000e+00
-1.721799048926956e-12 9.692866943942890e+02 0.000000000000000e+00
1.721799048926956e-12 -9.692866943942890e+02 0.000000000000000e+00
5.739330163089853e-13 9.692866943942890e+02 0.000000000000000e+00
-5.739330163089853e-13 -9.692866943942890e+02 0.000000000000000e+00
0.000000000000000e+00 9.692866943942890e+02 0.000000000000000e+00
0.000000000000000e+00 -9.692866943942890e+02 0.000000000000000e+00
-5.739330163089853e-13 9.692866943942890e+02 0.000000000000000e+00
5.739330163089853e-13 -9.692866943942890e+02 0.000000000000000e+00
-1.434832540772463e-13 9.692866943942890e+02 0.000000000000000e+00
1.434832540772463e-13 -9.692866943942890e+02 0.000000000000000e+00
0.000000000000000e+00 9.692866943942890e+02 0.000000000000000e+00
0.000000000000000e+00 -9.692866943942890e+02 0.000000000000000e+00
0.000000000000000e+00 9.692866943942890e+02 0.000000000000000e+00
0.000000000000000e+00 -9.692866943942890e+02 0.000000000000000e+00
0.000000000000000e+00 9.692866943942890e+02 0.000000000000000e+00
0.000000000000000e+00 -9.692866943942890e+02 0.000000000000000e+00
0.000000000000000e+00 9.692866943942890e+02 0.000000000000000e+00
0.000000000000000e+00 -9.692866943942890e+02 0.000000000000000e+00
2.494606162595826e+01 9.544223362776008e+02 0.000000000000000e+00
-2.494606162595826e+01 -9.544223362776008e+02 0.000000000000000e+00
7.820486065320893e+01 7.935949420039982e+02 0.000000000000000e+00
-7.820486065320893e+01 -7.935949420039982e+02 0.000000000000000e+00
1.013703782602344e+02 5.094530899512354e+02 0.000000000000000e+00
-1.013703782602344e+02 -5.094530899512354e+02 0.000000000000000e+00
8.405578133257789e+01 2.129671563032495e+02 0.000000000000000e+00
-8.405578133257789e+01 -2.129671563032495e+02 0.000000000000000e+00
3.247452625143161e+01 2.547312363293782e+01 0.000000000000000e+00
-3.247452625143161e+01 -2.547312363293782e+01 0.000000000000000e+00
        </DataArray>
        <DataArray type="Float64" Name="moment" NumberOfComponents="3" format="ascii">
0.000000000000000e+00 0.000000000000000e+00 0.000000000000000e+00
0.000000000000000e+00 0.000000000000000e+00 -1.807408581443462e+00
0.000000000000000e+00 0.000000000000000e+00 0.000000000000000e+00
0.000000000000000e+00 0.000000000000000e+00 -9.513955229701006e+00
0.000000000000000e+00 0.000000000000000e+00 0.000000000000000e+00
0.000000000000000e+00 0.000000000000000e+00 -2.332875379220119e+01
0.000000000000000e+00 0.000000000000000e+00 0.000000000000000e+00
0.000000000000000e+00 0.000000000000000e+00 -4.311994803898899e+01
0.000000000000000e+00 0.000000000000000e+00 0.000000000000000e+00
0.000000000000000e+00 0.000000000000000e+00 -6.858648205738861e+01
0.000000000000000e+00 0.000000000000000e+00 0.000000000000000e+00
0.000000000000000e+00 0.000000000000000e+00 -9.915403485833022e+01
0.000000000000000e+00 0.000000000000000e+00 0.000000000000000e+00
0.000000000000000e+00 0.000000000000000e+00 -1.338535599185002e+02
0.000000000000000e+00 0.000000000000000e+00 0.000000000000000e+00
0.000000000000000e+00 0.000000000000000e+00 -1.712024551263421e+02
0.000000000000000e+00 0.000000000000000e+00 0.000000000000000e+00
0.000000000000000e+00 0.000000000000000e+00 -2.091135458700201e+02
0.000000000000000e+00 0.000000000000000e+00 0.000000000000000e+00
0.000000000000000e+00 0.000000000000000e+00 -2.448629768763205e+02
0.000000000000000e+00 0.000000000000000e+00 0.000000000000000e+00
0.000000000000000e+00 0.000000000000000e+00 -2.751507404475342e+02
0.000000000000000e+00 0.000000000000000e+00 0.000000000000000e+00
0.000000000000000e+00 0.000000000000000e+00 -2.962839360569909e+02
0.000000000000000e+00 0.000000000000000e+00 0.000000000000000e+00
0.000000000000000e+00 0.000000000000000e+00 -3.045003354923863e+02
0.000000000000000e+00 0.000000000000000e+00 0.000000000000000e+00
0.000000000000000e+00 0.000000000000000e+00 -2.964271581828011e+02
0.000000000000000e+00 0.000000000000000e+00 0.000000000000000e+00
0.000000000000000e+00 0.000000000000000e+00 -2.696384330725722e+02
0.000000000000000e+00 0.000000000000000e+00 0.000000000000000e+00
0.000000000000000e+00 0.000000000000000e+00 -2.232386672317656e+02
0.000000000000000e+00 0.000000000000000e+00 0.000000000000000e+00
0.000000000000000e+00 0.000000000000000e+00 -1.583689749054513e+02
0.000000000000000e+00 0.000000000000000e+00 0.000000000000000e+00
0.000000000000000e+00 0.000000000000000e+00 -7.851478891758291e+01
0.000000000000000e+00 0.000000000000000e+00 0.000000000000000e+00
0.000000000000000e+00 0.000000000000000e+00 0.000000000000000e+00
0.000000000000000e+00 0.000000000000000e+00 0.000000000000000e+00
0.000000000000000e+00 0.000000000000000e+00 0.000000000000000e+00
0.000000000000000e+00 0.000000000000000e+00 0.000000000000000e+00
0.000000000000000e+00 0.000000000000000e+00 0.000000000000000e+00
0.000000000000000e+00 0.000000000000000e+00 0.000000000000000e+00
0.000000000000000e+00 0.000000000000000e+00 0.000000000000000e+00
0.000000000000000e+00 0.000000000000000e+00 0.000000000000000e+00
0.000000000000000e+00 0.000000000000000e+00 0.000000000000000e+00
0.000000000000000e+00 0.000000000000000e+00 0.000000000000000e+00
0.000000000000000e+00 0.000000000000000e+00 0.000000000000000e+00
0.000000000000000e+00 0.000000000000000e+00 0.000000000000000e+00
0.000000000000000e+00 0.000000000000000e+00 0.000000000000000e+00
0.000000000000000e+00 0.000000000000000e+00 0.000000000000000e+00
0.000000000000000e+00 0.000000000000000e+00 0.000000000000000e+00
0.000000000000000e+00 0.000000000000000e+00 0.000000000000000e+00
0.000000000000000e+00 0.000000000000000e+00 0.000000000000000e+00
0.000000000000000e+00 0.000000000000000e+00 0.000000000000000e+00
0.000000000000000e+00 0.000000000000000e+00 0.000000000000000e+00
0.000000000000000e+00 0.000000000000000e+00 0.000000000000000e+00
0.000000000000000e+00 0.000000000000000e+00 0.000000000000000e+00
0.000000000000000e+00 0.000000000000000e+00 0.000000000000000e+00
0.000000000000000e+00 0.000000000000000e+00 0.000000000000000e+00
0.000000000000000e+00 0.000000000000000e+00 0.000000000000000e+00
0.000000000000000e+00 0.000000000000000e+00 0.000000000000000e+00
0.000000000000000e+00 0.000000000000000e+00 0.000000000000000e+00
0.000000000000000e+00 0.000000000000000e+00 0.000000000000000e+00
0.000000000000000e+00 0.000000000000000e+00 0.000000000000000e+00
0.000000000000000e+00 0.000000000000000e+00 0.000000000000000e+00
0.000000000000000e+00 0.000000000000000e+00 0.000000000000000e+00
0.000000000000000e+00 0.000000000000000e+00 0.000000000000000e+00
0.000000000000000e+00 0.000000000000000e+00 0.000000000000000e+00
0.000000000000000e+00 0.000000000000000e+00 0.000000000000000e+00
0.000000000000000e+00 0.000000000000000e+00 0.000000000000000e+00
0.000000000000000e+00 0.000000000000000e+00 0.000000000000000e+00
0.000000000000000e+00 0.000000000000000e+00 0.000000000000000e+00
0.000000000000000e+00 0.000000000000000e+00 0.000000000000000e+00
0.000000000000000e+00 0.000000000000000e+00 0.000000000000000e+00
0.000000000000000e+00 0.000000000000000e+00 0.000000000000000e+00
0.000000000000000e+00 0.000000000000000e+00 0.000000000000000e+00
0.000000000000000e+00 0.000000000000000e+00 0.000000000000000e+00
0.000000000000000e+00 0.000000000000000e+00 0.000000000000000e+00
0.000000000000000e+00 0.000000000000000e+00 0.000000000000000e+00
0.000000000000000e+00 0.000000000000000e+00 0.000000000000000e+00
0.000000000000000e+00 0.000000000000000e+00 0.000000000000000e+00
0.000000000000000e+00 0.000000000000000e+00 0.000000000000000e+00
0.000000000000000e+00 0.000000000000000e+00 0.000000000000000e+00
0.000000000000000e+00 0.000000000000000e+00 0.000000000000000e+00
0.000000000000000e+00 0.000000000000000e+00 0.000000000000000e+00
0.000000000000000e+00 0.000000000000000e+00 0.000000000000000e+00
0.000000000000000e+00 0.000000000000000e+00 0.000000000000000e+00
0.000000000000000e+00 0.000000000000000e+00 0.000000000000000e+00
0.000000000000000e+00 0.000000000000000e+00 0.000000000000000e+00
0.000000000000000e+00 0.000000000000000e+00 0.000000000000000e+00
0.000000000000000e+00 0.000000000000000e+00 0.000000000000000e+00
0.000000000000000e+00 0.000000000000000e+00 0.000000000000000e+00
0.000000000000000e+00 0.000000000000000e+00 0.000000000000000e+00
0.000000000000000e+00 0.000000000000000e+00 0.000000000000000e+00
0.000000000000000e+00 0.000000000000000e+00 0.000000000000000e+00
0.000000000000000e+00 0.000000000000000e+00 0.000000000000000e+00
0.000000000000000e+00 0.000000000000000e+00 0.000000000000000e+00
0.000000000000000e+00 0.000000000000000e+00 0.000000000000000e+00
0.000000000000000e+00 0.000000000000000e+00 0.000000000000000e+00
0.000000000000000e+00 0.000000000000000e+00 0.000000000000000e+00
0.000000000000000e+00 0.000000000000000e+00 0.000000000000000e+00
0.000000000000000e+00 0.000000000000000e+00 0.000000000000000e+00
0.000000000000000e+00 0.000000000000000e+00 0.000000000000000e+00
0.000000000000000e+00 0.000000000000000e+00 0.000000000000000e+00
0.000000000000000e+00 0.000000000000000e+00 0.000000000000000e+00
0.000000000000000e+00 0.000000000000000e+00 0.000000000000000e+00
0.000000000000000e+00 0.000000000000000e+00 0.000000000000000e+00
0.000000000000000e+00 0.000000000000000e+00 0.000000000000000e+00
0.000000000000000e+00 0.000000000000000e+00 0.000000000000000e+00
0.000000000000000e+00 0.000000000000000e+00 0.000000000000000e+00
0.000000000000000e+00 0.000000000000000e+00 0.000000000000000e+00
0.000000000000000e+00 0.000000000000000e+00 0.000000000000000e+00
0.000000000000000e+00 0.000000000000000e+00 0.000000000000000e+00
0.000000000000000e+00 0.000000000000000e+00 0.000000000000000e+00
0.000000000000000e+00 0.000000000000000e+00 0.000000000000000e+00
0.000000000000000e+00 0.000000000000000e+00 0.000000000000000e+00
0.000000000000000e+00 0.000000000000000e+00 0.000000000000000e+00
0.000000000000000e+00 0.000000000000000e+00 0.000000000000000e+00
0.000000000000000e+00 0.000000000000000e+00 0.000000000000000e+00
0.000000000000000e+00 0.000000000000000e+00 0.000000000000000e+00
0.000000000000000e+00 0.000000000000000e+00 0.000000000000000e+00
0.000000000000000e+00 0.000000000000000e+00 0.000000000000000e+00
0.000000000000000e+00 0.000000000000000e+00 0.000000000000000e+00
0.000000000000000e+00 0.000000000000000e+00 0.000000000000000e+00
0.000000000000000e+00 0.000000000000000e+00 0.000000000000000e+00
0.000000000000000e+00 0.000000000000000e+00 0.000000000000000e+00
0.000000000000000e+00 0.000000000000000e+00 0.000000000000000e+00
0.000000000000000e+00 0.000000000000000e+00 0.000000000000000e+00
0.000000000000000e+00 0.000000000000000e+00 0.000000000000000e+00
0.000000000000000e+00 0.000000000000000e+00 0.000000000000000e+00
0.000000000000000e+00 0.000000000000000e+00 0.000000000000000e+00
0.000000000000000e+00 0.000000000000000e+00 0.000000000000000e+00
0.000000000000000e+00 0.000000000000000e+00 0.000000000000000e+00
0.000000000000000e+00 0.000000000000000e+00 0.000000000000000e+00