<?xml version="1.0" ?> 
<!-- 
# vtk DataFile Version 3.0
-->
<VTKFile type="UnstructuredGrid" version="0.1" compressor="vtkZLibDataCompressor" byte_order="LittleEndian">
  <UnstructuredGrid>
    <FieldData>
      <DataArray type="Float64" Name="TIME" NumberOfTuples="1" format="ascii">
5.000000000000000e-04 
      </DataArray>
    </FieldData>

    <Piece NumberOfPoints="18" NumberOfCells="3" >
      <Points>
        <DataArray type="Float64" NumberOfComponents="3" format="ascii">
-7.500000000000000e+01 0.000000000000000e+00 0.000000000000000e+00
-6.499999999999999e+01 0.000000000000000e+00 0.000000000000000e+00
-5.499999999999999e+01 0.000000000000000e+00 0.000000000000000e+00
-4.500000000000000e+01 0.000000000000000e+00 0.000000000000000e+00
-3.500000000000000e+01 0.000000000000000e+00 0.000000000000000e+00
-2.500000000000000e+01 0.000000000000000e+00 0.000000000000000e+00
-2.500000000000000e+01 0.000000000000000e+00 0.000000000000000e+00
-1.499999999999999e+01 0.000000000000000e+00 0.000000000000000e+00
-4.999999999999999e+00 0.000000000000000e+00 0.000000000000000e+00
5.000000000000000e+00 0.000000000000000e+00 0.000000000000000e+00
1.500000000000000e+01 0.000000000000000e+00 0.000000000000000e+00
2.500000000000000e+01 0.000000000000000e+00 0.000000000000000e+00
-2.500000000000000e+01 3.000000000000000e+00 0.000000000000000e+00
-4.999999999999994e+00 3.000000000000000e+00 0.000000000000000e+00
1.500000000000000e+01 3.000000000000000e+00 0.000000000000000e+00
3.499999999999999e+01 3.000000000000000e+00 0.000000000000000e+00
5.500000000000000e+01 3.000000000000000e+00 0.000000000000000e+00
7.500000000000000e+01 3.000000000000000e+00 0.000000000000000e+00
        </DataArray>
      </Points>

      <Cells>
        <DataArray type="Int32" Name="connectivity" format="ascii">
0 1 2 3 4 5 6 7 8 9 10 11 12 13 14 15 16 17 
        </DataArray>
        <DataArray type="Int32" Name="offsets" format="ascii">
6 12 18 
        </DataArray>
        <DataArray type="UInt8" Name="types" format="ascii">
4 4 4 
        </DataArray>
      </Cells>

  <CellData>
        <DataArray type="Float64" Name="cross_section_radius" format="ascii">
7.500000000000000e-01
7.500000000000000e-01
7.500000000000000e-01
        </DataArray>
        <DataArray type="Float64" Name="element_owner" format="ascii">
0.000000000000000e+00
0.000000000000000e+00
0.000000000000000e+00
        </DataArray>
      </CellData>

    </Piece>
  </UnstructuredGrid>
</VTKFile>
