<?xml version="1.0" ?> 
<!-- 
# vtk DataFile Version 3.0
-->
<VTKFile type="UnstructuredGrid" version="0.1" compressor="vtkZLibDataCompressor" byte_order="LittleEndian">
  <UnstructuredGrid>
    <FieldData>
      <DataArray type="Float64" Name="TIME" NumberOfTuples="1" format="ascii">
2.000000000000000e-01 
      </DataArray>
    </FieldData>

    <Piece NumberOfPoints="48" NumberOfCells="12" >
      <Points>
        <DataArray type="Float64" NumberOfComponents="3" format="ascii">
5.000000000000000e-01 2.500000000000000e-01 0.000000000000000e+00
5.000000000000000e-01 0.000000000000000e+00 0.000000000000000e+00
7.500000000000000e-01 0.000000000000000e+00 0.000000000000000e+00
7.500000000000000e-01 2.500000000000000e-01 0.000000000000000e+00
2.500000000000000e-01 2.500000000000000e-01 0.000000000000000e+00
2.500000000000000e-01 0.000000000000000e+00 0.000000000000000e+00
5.000000000000000e-01 0.000000000000000e+00 0.000000000000000e+00
5.000000000000000e-01 2.500000000000000e-01 0.000000000000000e+00
7.500000000000000e-01 5.000000000000000e-01 0.000000000000000e+00
7.500000000000000e-01 2.500000000000000e-01 0.000000000000000e+00
1.000000000000000e+00 2.500000000000000e-01 0.000000000000000e+00
1.000000000000000e+00 5.000000000000000e-01 0.000000000000000e+00
5.000000000000000e-01 5.000000000000000e-01 0.000000000000000e+00
5.000000000000000e-01 2.500000000000000e-01 0.000000000000000e+00
7.500000000000000e-01 2.500000000000000e-01 0.000000000000000e+00
7.500000000000000e-01 5.000000000000000e-01 0.000000000000000e+00
2.500000000000000e-01 5.000000000000000e-01 0.000000000000000e+00
2.500000000000000e-01 2.500000000000000e-01 0.000000000000000e+00
5.000000000000000e-01 2.500000000000000e-01 0.000000000000000e+00
5.000000000000000e-01 5.000000000000000e-01 0.000000000000000e+00
0.000000000000000e+00 5.000000000000000e-01 0.000000000000000e+00
0.000000000000000e+00 2.500000000000000e-01 0.000000000000000e+00
2.500000000000000e-01 2.500000000000000e-01 0.000000000000000e+00
2.500000000000000e-01 5.000000000000000e-01 0.000000000000000e+00
7.500000000000000e-01 7.500000000000000e-01 0.000000000000000e+00
7.500000000000000e-01 5.000000000000000e-01 0.000000000000000e+00
1.000000000000000e+00 5.000000000000000e-01 0.000000000000000e+00
1.000000000000000e+00 7.500000000000000e-01 0.000000000000000e+00
5.000000000000000e-01 7.500000000000000e-01 0.000000000000000e+00
5.000000000000000e-01 5.000000000000000e-01 0.000000000000000e+00
7.500000000000000e-01 5.000000000000000e-01 0.000000000000000e+00
7.500000000000000e-01 7.500000000000000e-01 0.000000000000000e+00
2.500000000000000e-01 7.500000000000000e-01 0.000000000000000e+00
2.500000000000000e-01 5.000000000000000e-01 0.000000000000000e+00
5.000000000000000e-01 5.000000000000000e-01 0.000000000000000e+00
5.000000000000000e-01 7.500000000000000e-01 0.000000000000000e+00
0.000000000000000e+00 7.500000000000000e-01 0.000000000000000e+00
0.000000000000000e+00 5.000000000000000e-01 0.000000000000000e+00
2.500000000000000e-01 5.000000000000000e-01 0.000000000000000e+00
2.500000000000000e-01 7.500000000000000e-01 0.000000000000000e+00
2.500000000000000e-01 1.000000000000000e+00 0.000000000000000e+00
2.500000000000000e-01 7.500000000000000e-01 0.000000000000000e+00
5.000000000000000e-01 7.500000000000000e-01 0.000000000000000e+00
5.000000000000000e-01 1.000000000000000e+00 0.000000000000000e+00
0.000000000000000e+00 1.000000000000000e+00 0.000000000000000e+00
0.000000000000000e+00 7.500000000000000e-01 0.000000000000000e+00
2.500000000000000e-01 7.500000000000000e-01 0.000000000000000e+00
2.500000000000000e-01 1.000000000000000e+00 0.000000000000000e+00
        </DataArray>
      </Points>

      <Cells>
        <DataArray type="Int32" Name="connectivity" format="ascii">
0 1 2 3 4 5 6 7 8 9 10 11 12 13 14 15 16 17 18 19 20 21 22 23 24 25 26 27 28 29 30 31 32 33 34 35 36 37 38 39 40 41 42 43 44 45 46 47 
        </DataArray>
        <DataArray type="Int32" Name="offsets" format="ascii">
4 8 12 16 20 24 28 32 36 40 44 48 
        </DataArray>
        <DataArray type="UInt8" Name="types" format="ascii">
9 9 9 9 9 9 9 9 9 9 9 9 
        </DataArray>
      </Cells>

  <PointData>
        <DataArray type="Float64" Name="displacement" NumberOfComponents="2" format="ascii">
2.845430262516469e-04 -1.041186243467292e-04
0.000000000000000e+00 0.000000000000000e+00
0.000000000000000e+00 0.000000000000000e+00
4.091144833442439e-04 -1.458150264723937e-04
3.987763193587125e-04 9.151789414397010e-06
0.000000000000000e+00 0.000000000000000e+00
0.000000000000000e+00 0.000000000000000e+00
2.845430262516469e-04 -1.041186243467292e-04
-2.596902181753061e-03 -1.773957782909525e-03
4.091144833442439e-04 -1.458150264723937e-04
5.060058721239155e-04 3.252217064298129e-04
-2.859198817298364e-03 -1.690292498706494e-03
-2.118867259024852e-03 -1.586757556672786e-03
2.845430262516469e-04 -1.041186243467292e-04
4.091144833442439e-04 -1.458150264723937e-04
-2.596902181753061e-03 -1.773957782909525e-03
-2.567285290024131e-03 -1.663341105511552e-03
3.987763193587125e-04 9.151789414397010e-06
2.845430262516469e-04 -1.041186243467292e-04
-2.118867259024852e-03 -1.586757556672786e-03
-3.171474466672925e-03 -1.205432162741322e-03
5.290119894375316e-04 -5.865455669715632e-04
3.987763193587125e-04 9.151789414397010e-06
-2.567285290024131e-03 -1.663341105511552e-03
1.501482265954209e-02 2.750625449790031e-02
-2.596902181753061e-03 -1.773957782909525e-03
-2.859198817298364e-03 -1.690292498706494e-03
1.321590136537832e-02 1.058688647372932e-02
1.492640139216304e-02 2.514838835155141e-02
-2.118867259024852e-03 -1.586757556672786e-03
-2.596902181753061e-03 -1.773957782909525e-03
1.501482265954209e-02 2.750625449790031e-02
1.489274648049282e-02 2.287108889023931e-02
-2.567285290024131e-03 -1.663341105511552e-03
-2.118867259024852e-03 -1.586757556672786e-03
1.492640139216304e-02 2.514838835155141e-02
1.666706532702158e-02 3.942608632711120e-02
-3.171474466672925e-03 -1.205432162741322e-03
-2.567285290024131e-03 -1.663341105511552e-03
1.489274648049282e-02 2.287108889023931e-02
5.000000000000000e-02 5.000000000000000e-02
1.489274648049282e-02 2.287108889023931e-02
1.492640139216304e-02 2.514838835155141e-02
5.000000000000000e-02 5.000000000000000e-02
5.000000000000000e-02 5.000000000000000e-02
1.666706532702158e-02 3.942608632711120e-02
1.489274648049282e-02 2.287108889023931e-02
5.000000000000000e-02 5.000000000000000e-02
        </DataArray>
        <DataArray type="Float64" Name="nodal_GL_strains_xyz" NumberOfComponents="6" format="ascii">
2.058885127653098e-05 -3.141509515820366e-03 0.000000000000000e+00 -2.273386095773725e-03 0.000000000000000e+00 0.000000000000000e+00
-2.875737992057671e-08 -4.157688113928693e-04 0.000000000000000e+00 5.690860525033867e-04 0.000000000000000e+00 0.000000000000000e+00
-1.656801221058872e-07 -5.819166925519886e-04 0.000000000000000e+00 8.182289666884830e-04 0.000000000000000e+00 0.000000000000000e+00
4.436158062525555e-04 -3.500717045208128e-03 0.000000000000000e+00 -2.170235348914337e-03 0.000000000000000e+00 0.000000000000000e+00
-4.881470697071536e-04 -3.280466697717191e-03 0.000000000000000e+00 -2.085207985381310e-03 0.000000000000000e+00 0.000000000000000e+00
-2.651307346437206e-07 3.761487738788249e-05 0.000000000000000e+00 7.975526387173910e-04 0.000000000000000e+00 0.000000000000000e+00
-2.875737992057671e-08 -4.157688113928693e-04 0.000000000000000e+00 5.690860525033867e-04 0.000000000000000e+00 0.000000000000000e+00
2.058885127653098e-05 -3.141509515820366e-03 0.000000000000000e+00 -2.273386095773725e-03 0.000000000000000e+00 0.000000000000000e+00
-1.578947664003397e-03 5.992125973090555e-02 0.000000000000000e+00 1.447482118994601e-02 0.000000000000000e+00 0.000000000000000e+00
4.436158062525555e-04 -3.500717045208128e-03 0.000000000000000e+00 -2.170235348914337e-03 0.000000000000000e+00 0.000000000000000e+00
3.890754393314362e-04 -3.317930376705316e-03 0.000000000000000e+00 -1.921418237895744e-03 0.000000000000000e+00 0.000000000000000e+00
-1.243075766745012e-03 2.202693339286540e-02 0.000000000000000e+00 1.286732519075285e-02 0.000000000000000e+00 0.000000000000000e+00
-6.153521022100482e-05 5.455396574201565e-02 0.000000000000000e+00 1.452478769901025e-02 0.000000000000000e+00 0.000000000000000e+00
2.058885127653098e-05 -3.141509515820366e-03 0.000000000000000e+00 -2.273386095773725e-03 0.000000000000000e+00 0.000000000000000e+00
4.436158062525555e-04 -3.500717045208128e-03 0.000000000000000e+00 -2.170235348914337e-03 0.000000000000000e+00 0.000000000000000e+00
-1.578947664003397e-03 5.992125973090555e-02 0.000000000000000e+00 1.447482118994601e-02 0.000000000000000e+00 0.000000000000000e+00
2.017744149520775e-03 4.930682013454096e-02 0.000000000000000e+00 1.412572200777872e-02 0.000000000000000e+00 0.000000000000000e+00
-4.881470697071536e-04 -3.280466697717191e-03 0.000000000000000e+00 -2.085207985381310e-03 0.000000000000000e+00 0.000000000000000e+00
2.058885127653098e-05 -3.141509515820366e-03 0.000000000000000e+00 -2.273386095773725e-03 0.000000000000000e+00 0.000000000000000e+00
-6.153521022100482e-05 5.455396574201565e-02 0.000000000000000e+00 1.452478769901025e-02 0.000000000000000e+00 0.000000000000000e+00
2.243739158222039e-03 8.808190674477370e-02 0.000000000000000e+00 1.518794863280636e-02 0.000000000000000e+00 0.000000000000000e+00
-5.193156687936943e-04 -2.353409807252670e-03 0.000000000000000e+00 -1.981299888502330e-03 0.000000000000000e+00 0.000000000000000e+00
-4.881470697071536e-04 -3.280466697717191e-03 0.000000000000000e+00 -2.085207985381310e-03 0.000000000000000e+00 0.000000000000000e+00
2.017744149520775e-03 4.930682013454096e-02 0.000000000000000e+00 1.412572200777872e-02 0.000000000000000e+00 0.000000000000000e+00
-2.438503145833850e-03 1.149398781539816e-01 0.000000000000000e+00 3.634765313179331e-02 0.000000000000000e+00 0.000000000000000e+00
-1.578947664003397e-03 5.992125973090555e-02 0.000000000000000e+00 1.447482118994601e-02 0.000000000000000e+00 0.000000000000000e+00
-1.243075766745012e-03 2.202693339286540e-02 0.000000000000000e+00 1.286732519075285e-02 0.000000000000000e+00 0.000000000000000e+00
-5.266986445500307e-03 1.162556802696908e-01 0.000000000000000e+00 1.514183628732614e-02 0.000000000000000e+00 0.000000000000000e+00
2.796480007275530e-04 1.145782689734946e-01 0.000000000000000e+00 5.724498413990341e-02 0.000000000000000e+00 0.000000000000000e+00
-6.153521022100482e-05 5.455396574201565e-02 0.000000000000000e+00 1.452478769901025e-02 0.000000000000000e+00 0.000000000000000e+00
-1.578947664003397e-03 5.992125973090555e-02 0.000000000000000e+00 1.447482118994601e-02 0.000000000000000e+00 0.000000000000000e+00
-2.438503145833850e-03 1.149398781539816e-01 0.000000000000000e+00 3.634765313179331e-02 0.000000000000000e+00 0.000000000000000e+00
-2.535778414532653e-03 1.146437703035458e-01 0.000000000000000e+00 3.663131619772316e-02 0.000000000000000e+00 0.000000000000000e+00
2.017744149520775e-03 4.930682013454096e-02 0.000000000000000e+00 1.412572200777872e-02 0.000000000000000e+00 0.000000000000000e+00
-6.153521022100482e-05 5.455396574201565e-02 0.000000000000000e+00 1.452478769901025e-02 0.000000000000000e+00 0.000000000000000e+00
2.796480007275530e-04 1.145782689734946e-01 0.000000000000000e+00 5.724498413990341e-02 0.000000000000000e+00 0.000000000000000e+00
-5.240872676687875e-03 1.151190584157256e-01 0.000000000000000e+00 1.629328380312113e-02 0.000000000000000e+00 0.000000000000000e+00
2.243739158222039e-03 8.808190674477370e-02 0.000000000000000e+00 1.518794863280636e-02 0.000000000000000e+00 0.000000000000000e+00
2.017744149520775e-03 4.930682013454096e-02 0.000000000000000e+00 1.412572200777872e-02 0.000000000000000e+00 0.000000000000000e+00
-2.535778414532653e-03 1.146437703035458e-01 0.000000000000000e+00 3.663131619772316e-02 0.000000000000000e+00 0.000000000000000e+00
-1.882689153289706e-04 1.240753520651875e-01 0.000000000000000e+00 7.021450703901434e-02 0.000000000000000e+00 0.000000000000000e+00
-2.535778414532653e-03 1.146437703035458e-01 0.000000000000000e+00 3.663131619772316e-02 0.000000000000000e+00 0.000000000000000e+00
2.796480007275530e-04 1.145782689734946e-01 0.000000000000000e+00 5.724498413990341e-02 0.000000000000000e+00 0.000000000000000e+00
-7.169717716015571e-06 1.141813562427100e-01 0.000000000000000e+00 7.014719721567400e-02 0.000000000000000e+00 0.000000000000000e+00
-3.696215300053594e-04 5.170917063574813e-02 0.000000000000000e+00 6.666586934595684e-02 0.000000000000000e+00 0.000000000000000e+00
-5.240872676687875e-03 1.151190584157256e-01 0.000000000000000e+00 1.629328380312113e-02 0.000000000000000e+00 0.000000000000000e+00
-2.535778414532653e-03 1.146437703035458e-01 0.000000000000000e+00 3.663131619772316e-02 0.000000000000000e+00 0.000000000000000e+00
-1.882689153289706e-04 1.240753520651875e-01 0.000000000000000e+00 7.021450703901434e-02 0.000000000000000e+00 0.000000000000000e+00
        </DataArray>
        <DataArray type="Float64" Name="nodal_cauchy_stresses_xyz" NumberOfComponents="6" format="ascii">
6.811320129932750e-05 -3.122631247665700e-03 0.000000000000000e+00 -2.245637593540663e-03 0.000000000000000e+00 0.000000000000000e+00
1.190462177854199e-06 -4.156344900232364e-04 0.000000000000000e+00 5.685921131972458e-04 0.000000000000000e+00 0.000000000000000e+00
2.445630648738866e-06 -5.821736042343404e-04 0.000000000000000e+00 8.171679456055599e-04 0.000000000000000e+00 0.000000000000000e+00
5.139147035240052e-04 -3.481268560722714e-03 0.000000000000000e+00 -2.132105699989308e-03 0.000000000000000e+00 0.000000000000000e+00
-4.240621130252345e-04 -3.263983382457445e-03 0.000000000000000e+00 -2.045486708935277e-03 0.000000000000000e+00 0.000000000000000e+00
2.199487485492752e-06 3.663645392312151e-05 0.000000000000000e+00 7.977834665368856e-04 0.000000000000000e+00 0.000000000000000e+00
1.190462177854199e-06 -4.156344900232364e-04 0.000000000000000e+00 5.685921131972458e-04 0.000000000000000e+00 0.000000000000000e+00
6.811320129932750e-05 -3.122631247665700e-03 0.000000000000000e+00 -2.245637593540663e-03 0.000000000000000e+00 0.000000000000000e+00
1.066469829015255e-03 6.699337197573439e-02 0.000000000000000e+00 1.892253183606100e-02 0.000000000000000e+00 0.000000000000000e+00
5.139147035240052e-04 -3.481268560722714e-03 0.000000000000000e+00 -2.132105699989308e-03 0.000000000000000e+00 0.000000000000000e+00
4.720986009227691e-04 -3.291924986812262e-03 0.000000000000000e+00 -1.866284804163246e-03 0.000000000000000e+00 0.000000000000000e+00
9.496580133831563e-04 2.254335774814660e-02 0.000000000000000e+00 1.451061211531517e-02 0.000000000000000e+00 0.000000000000000e+00
2.323946230752697e-03 6.069901866823020e-02 0.000000000000000e+00 1.847168598518824e-02 0.000000000000000e+00 0.000000000000000e+00
6.811320129932750e-05 -3.122631247665700e-03 0.000000000000000e+00 -2.245637593540663e-03 0.000000000000000e+00 0.000000000000000e+00
5.139147035240052e-04 -3.481268560722714e-03 0.000000000000000e+00 -2.132105699989308e-03 0.000000000000000e+00 0.000000000000000e+00
1.066469829015255e-03 6.699337197573439e-02 0.000000000000000e+00 1.892253183606100e-02 0.000000000000000e+00 0.000000000000000e+00
4.439529383110846e-03 5.395840477553575e-02 0.000000000000000e+00 1.777038963043722e-02 0.000000000000000e+00 0.000000000000000e+00
-4.240621130252345e-04 -3.263983382457445e-03 0.000000000000000e+00 -2.045486708935277e-03 0.000000000000000e+00 0.000000000000000e+00
6.811320129932750e-05 -3.122631247665700e-03 0.000000000000000e+00 -2.245637593540663e-03 0.000000000000000e+00 0.000000000000000e+00
2.323946230752697e-03 6.069901866823020e-02 0.000000000000000e+00 1.847168598518824e-02 0.000000000000000e+00 0.000000000000000e+00
5.335344830881477e-03 1.014771958351659e-01 0.000000000000000e+00 2.214482095748231e-02 0.000000000000000e+00 0.000000000000000e+00
-4.251674489639374e-04 -2.362277361141775e-03 0.000000000000000e+00 -1.964977842144732e-03 0.000000000000000e+00 0.000000000000000e+00
-4.240621130252345e-04 -3.263983382457445e-03 0.000000000000000e+00 -2.045486708935277e-03 0.000000000000000e+00 0.000000000000000e+00
4.439529383110846e-03 5.395840477553575e-02 0.000000000000000e+00 1.777038963043722e-02 0.000000000000000e+00 0.000000000000000e+00
7.113829693464082e-03 1.257492364334267e-01 0.000000000000000e+00 4.802634914970613e-02 0.000000000000000e+00 0.000000000000000e+00
1.066469829015255e-03 6.699337197573439e-02 0.000000000000000e+00 1.892253183606100e-02 0.000000000000000e+00 0.000000000000000e+00
9.496580133831563e-04 2.254335774814660e-02 0.000000000000000e+00 1.451061211531517e-02 0.000000000000000e+00 0.000000000000000e+00
1.093359941467578e-03 1.279269296405490e-01 0.000000000000000e+00 2.991596682237997e-02 0.000000000000000e+00 0.000000000000000e+00
1.355046494640683e-02 1.275104245536701e-01 0.000000000000000e+00 6.929402511244273e-02 0.000000000000000e+00 0.000000000000000e+00
2.323946230752697e-03 6.069901866823020e-02 0.000000000000000e+00 1.847168598518824e-02 0.000000000000000e+00 0.000000000000000e+00
1.066469829015255e-03 6.699337197573439e-02 0.000000000000000e+00 1.892253183606100e-02 0.000000000000000e+00 0.000000000000000e+00
7.113829693464082e-03 1.257492364334267e-01 0.000000000000000e+00 4.802634914970613e-02 0.000000000000000e+00 0.000000000000000e+00
7.118926470201393e-03 1.253002701493102e-01 0.000000000000000e+00 4.898149519192518e-02 0.000000000000000e+00 0.000000000000000e+00
4.439529383110846e-03 5.395840477553575e-02 0.000000000000000e+00 1.777038963043722e-02 0.000000000000000e+00 0.000000000000000e+00
2.323946230752697e-03 6.069901866823020e-02 0.000000000000000e+00 1.847168598518824e-02 0.000000000000000e+00 0.000000000000000e+00
1.355046494640683e-02 1.275104245536701e-01 0.000000000000000e+00 6.929402511244273e-02 0.000000000000000e+00 0.000000000000000e+00
2.701060758870768e-04 1.271980249155883e-01 0.000000000000000e+00 2.664221339866729e-02 0.000000000000000e+00 0.000000000000000e+00
5.335344830881477e-03 1.014771958351659e-01 0.000000000000000e+00 2.214482095748231e-02 0.000000000000000e+00 0.000000000000000e+00
4.439529383110846e-03 5.395840477553575e-02 0.000000000000000e+00 1.777038963043722e-02 0.000000000000000e+00 0.000000000000000e+00
7.118926470201393e-03 1.253002701493102e-01 0.000000000000000e+00 4.898149519192518e-02 0.000000000000000e+00 0.000000000000000e+00
1.981043318027815e-02 1.367163322636488e-01 0.000000000000000e+00 8.751823888468421e-02 0.000000000000000e+00 0.000000000000000e+00
7.118926470201393e-03 1.253002701493102e-01 0.000000000000000e+00 4.898149519192518e-02 0.000000000000000e+00 0.000000000000000e+00
1.355046494640683e-02 1.275104245536701e-01 0.000000000000000e+00 6.929402511244273e-02 0.000000000000000e+00 0.000000000000000e+00
1.994018344231530e-02 1.254998719888160e-01 0.000000000000000e+00 8.616332880990463e-02 0.000000000000000e+00 0.000000000000000e+00
1.754965317298469e-02 5.233005869539362e-02 0.000000000000000e+00 7.332488500667057e-02 0.000000000000000e+00 0.000000000000000e+00
2.701060758870768e-04 1.271980249155883e-01 0.000000000000000e+00 2.664221339866729e-02 0.000000000000000e+00 0.000000000000000e+00
7.118926470201393e-03 1.253002701493102e-01 0.000000000000000e+00 4.898149519192518e-02 0.000000000000000e+00 0.000000000000000e+00
1.981043318027815e-02 1.367163322636488e-01 0.000000000000000e+00 8.751823888468421e-02 0.000000000000000e+00 0.000000000000000e+00
        </DataArray>
  </PointData>
  <CellData>
        <DataArray type="Float64" Name="element_GL_strains_xyz" NumberOfComponents="6" format="ascii">
2.491889318861351e-04 -4.987685420721200e-04 0.000000000000000e+00 6.521547699916671e-04 0.000000000000000e+00 0.000000000000000e+00
-2.283975743956335e-04 -1.889645288544184e-04 0.000000000000000e+00 5.699143300764413e-04 0.000000000000000e+00 0.000000000000000e+00
-3.299543386334758e-04 -7.179390479492231e-03 0.000000000000000e+00 -5.818453958266185e-03 0.000000000000000e+00 0.000000000000000e+00
-7.063160672207136e-04 -6.143429448358689e-03 0.000000000000000e+00 -5.633075414261920e-03 0.000000000000000e+00 0.000000000000000e+00
6.688306072079042e-04 -6.232456403261200e-03 0.000000000000000e+00 -5.409516046906909e-03 0.000000000000000e+00 0.000000000000000e+00
9.494938923458318e-04 -4.482272771172136e-03 0.000000000000000e+00 -6.535710370632235e-03 0.000000000000000e+00 0.000000000000000e+00
-3.352747275862156e-03 8.903272997378475e-02 0.000000000000000e+00 1.531295473695861e-02 0.000000000000000e+00 0.000000000000000e+00
-7.649679750531269e-04 1.207129036370065e-01 0.000000000000000e+00 3.704383499480684e-02 0.000000000000000e+00 0.000000000000000e+00
9.790356570825165e-04 1.101808656017297e-01 0.000000000000000e+00 3.713381674259558e-02 0.000000000000000e+00 0.000000000000000e+00
-1.582127260304045e-03 1.417839812423268e-01 0.000000000000000e+00 1.798105249265428e-02 0.000000000000000e+00 0.000000000000000e+00
8.114242464596355e-05 1.192191571698186e-01 0.000000000000000e+00 7.269962588236678e-02 0.000000000000000e+00 0.000000000000000e+00
-2.809394633046886e-03 8.780158504312957e-02 0.000000000000000e+00 5.039398098879477e-02 0.000000000000000e+00 0.000000000000000e+00
        </DataArray>
        <DataArray type="Float64" Name="element_cauchy_stresses_xyz" NumberOfComponents="6" format="ascii">
2.512264679789671e-04 -4.984991219042826e-04 0.000000000000000e+00 6.514282302684440e-04 0.000000000000000e+00 0.000000000000000e+00
-2.267962156414531e-04 -1.891958140784227e-04 0.000000000000000e+00 5.697419670716175e-04 0.000000000000000e+00 0.000000000000000e+00
-1.837243476265044e-04 -7.141849563814983e-03 0.000000000000000e+00 -5.726778250480927e-03 0.000000000000000e+00 0.000000000000000e+00
-5.873431160877773e-04 -6.104344245439181e-03 0.000000000000000e+00 -5.566065942124355e-03 0.000000000000000e+00 0.000000000000000e+00
7.905744368448709e-04 -6.188111705133927e-03 0.000000000000000e+00 -5.342408846231956e-03 0.000000000000000e+00 0.000000000000000e+00
1.130508853833441e-03 -4.458132633259176e-03 0.000000000000000e+00 -6.477785701554091e-03 0.000000000000000e+00 0.000000000000000e+00
-7.942390398262429e-04 9.643035586436302e-02 0.000000000000000e+00 2.144742899294983e-02 0.000000000000000e+00 0.000000000000000e+00
4.454725501414554e-03 1.347189256145348e-01 0.000000000000000e+00 4.544133782353429e-02 0.000000000000000e+00 0.000000000000000e+00
6.015058822556344e-03 1.217610932175998e-01 0.000000000000000e+00 4.475647884735010e-02 0.000000000000000e+00 0.000000000000000e+00
1.689832228494657e-03 1.598379865578470e-01 0.000000000000000e+00 2.864415776683624e-02 0.000000000000000e+00 0.000000000000000e+00
2.069968447042947e-02 1.323587027823787e-01 0.000000000000000e+00 8.952779901819261e-02 0.000000000000000e+00 0.000000000000000e+00
1.172708716906531e-02 9.181606801023762e-02 0.000000000000000e+00 6.218412695630153e-02 0.000000000000000e+00 0.000000000000000e+00
        </DataArray>
      </CellData>

    </Piece>
  </UnstructuredGrid>
</VTKFile>
