<?xml version="1.0" ?> 
<!-- 
# vtk DataFile Version 3.0
-->
<VTKFile type="UnstructuredGrid" version="0.1" compressor="vtkZLibDataCompressor" byte_order="LittleEndian">
  <UnstructuredGrid>
    <FieldData>
      <DataArray type="Float64" Name="TIME" NumberOfTuples="1" format="ascii">
2.000000000000000e-01 
      </DataArray>
    </FieldData>

    <Piece NumberOfPoints="16" NumberOfCells="4" >
      <Points>
        <DataArray type="Float64" NumberOfComponents="3" format="ascii">
7.500000000000000e-01 2.500000000000000e-01 0.000000000000000e+00
7.500000000000000e-01 0.000000000000000e+00 0.000000000000000e+00
1.000000000000000e+00 0.000000000000000e+00 0.000000000000000e+00
1.000000000000000e+00 2.500000000000000e-01 0.000000000000000e+00
0.000000000000000e+00 2.500000000000000e-01 0.000000000000000e+00
0.000000000000000e+00 0.000000000000000e+00 0.000000000000000e+00
2.500000000000000e-01 0.000000000000000e+00 0.000000000000000e+00
2.500000000000000e-01 2.500000000000000e-01 0.000000000000000e+00
7.500000000000000e-01 1.000000000000000e+00 0.000000000000000e+00
7.500000000000000e-01 7.500000000000000e-01 0.000000000000000e+00
1.000000000000000e+00 7.500000000000000e-01 0.000000000000000e+00
1.000000000000000e+00 1.000000000000000e+00 0.000000000000000e+00
5.000000000000000e-01 1.000000000000000e+00 0.000000000000000e+00
5.000000000000000e-01 7.500000000000000e-01 0.000000000000000e+00
7.500000000000000e-01 7.500000000000000e-01 0.000000000000000e+00
7.500000000000000e-01 1.000000000000000e+00 0.000000000000000e+00
        </DataArray>
      </Points>

      <Cells>
        <DataArray type="Int32" Name="connectivity" format="ascii">
0 1 2 3 4 5 6 7 8 9 10 11 12 13 14 15 
        </DataArray>
        <DataArray type="Int32" Name="offsets" format="ascii">
4 8 12 16 
        </DataArray>
        <DataArray type="UInt8" Name="types" format="ascii">
9 9 9 9 
        </DataArray>
      </Cells>

  <PointData>
        <DataArray type="Float64" Name="displacement" NumberOfComponents="2" format="ascii">
4.091144833442439e-04 -1.458150264723937e-04
0.000000000000000e+00 0.000000000000000e+00
0.000000000000000e+00 0.000000000000000e+00
5.060058721239155e-04 3.252217064298129e-04
5.290119894375316e-04 -5.865455669715632e-04
0.000000000000000e+00 0.000000000000000e+00
0.000000000000000e+00 0.000000000000000e+00
3.987763193587125e-04 9.151789414397010e-06
5.000000000000000e-02 5.000000000000000e-02
1.501482265954209e-02 2.750625449790031e-02
1.321590136537832e-02 1.058688647372932e-02
5.000000000000000e-02 5.000000000000000e-02
5.000000000000000e-02 5.000000000000000e-02
1.492640139216304e-02 2.514838835155141e-02
1.501482265954209e-02 2.750625449790031e-02
5.000000000000000e-02 5.000000000000000e-02
        </DataArray>
        <DataArray type="Float64" Name="nodal_GL_strains_xyz" NumberOfComponents="6" format="ascii">
4.436158062525555e-04 -3.500717045208128e-03 0.000000000000000e+00 -2.170235348914337e-03 0.000000000000000e+00 0.000000000000000e+00
-1.656801221058872e-07 -5.819166925519886e-04 0.000000000000000e+00 8.182289666884830e-04 0.000000000000000e+00 0.000000000000000e+00
-3.083513934120329e-07 1.303472963133403e-03 0.000000000000000e+00 1.012011744248031e-03 0.000000000000000e+00 0.000000000000000e+00
3.890754393314362e-04 -3.317930376705316e-03 0.000000000000000e+00 -1.921418237895744e-03 0.000000000000000e+00 0.000000000000000e+00
-5.193156687936943e-04 -2.353409807252670e-03 0.000000000000000e+00 -1.981299888502330e-03 0.000000000000000e+00 0.000000000000000e+00
-4.957555602459616e-07 -2.341686908349661e-03 0.000000000000000e+00 1.058023978875063e-03 0.000000000000000e+00 0.000000000000000e+00
-2.651307346437206e-07 3.761487738788249e-05 0.000000000000000e+00 7.975526387173910e-04 0.000000000000000e+00 0.000000000000000e+00
-4.881470697071536e-04 -3.280466697717191e-03 0.000000000000000e+00 -2.085207985381310e-03 0.000000000000000e+00 0.000000000000000e+00
-1.967123221631195e-04 1.036177194482879e-01 0.000000000000000e+00 6.997035468091584e-02 0.000000000000000e+00 0.000000000000000e+00
-2.438503145833850e-03 1.149398781539816e-01 0.000000000000000e+00 3.634765313179331e-02 0.000000000000000e+00 0.000000000000000e+00
-5.266986445500307e-03 1.162556802696908e-01 0.000000000000000e+00 1.514183628732614e-02 0.000000000000000e+00 0.000000000000000e+00
-3.860015095467897e-04 1.805181600371068e-01 0.000000000000000e+00 7.356819726924341e-02 0.000000000000000e+00 0.000000000000000e+00
-7.169717716015571e-06 1.141813562427100e-01 0.000000000000000e+00 7.014719721567400e-02 0.000000000000000e+00 0.000000000000000e+00
2.796480007275530e-04 1.145782689734946e-01 0.000000000000000e+00 5.724498413990341e-02 0.000000000000000e+00 0.000000000000000e+00
-2.438503145833850e-03 1.149398781539816e-01 0.000000000000000e+00 3.634765313179331e-02 0.000000000000000e+00 0.000000000000000e+00
-1.967123221631195e-04 1.036177194482879e-01 0.000000000000000e+00 6.997035468091584e-02 0.000000000000000e+00 0.000000000000000e+00
        </DataArray>
        <DataArray type="Float64" Name="nodal_cauchy_stresses_xyz" NumberOfComponents="6" format="ascii">
5.139147035240052e-04 -3.481268560722714e-03 0.000000000000000e+00 -2.132105699989308e-03 0.000000000000000e+00 0.000000000000000e+00
2.445630648738866e-06 -5.821736042343404e-04 0.000000000000000e+00 8.171679456055599e-04 0.000000000000000e+00 0.000000000000000e+00
3.738325536937559e-06 1.303984055631042e-03 0.000000000000000e+00 1.014404884847152e-03 0.000000000000000e+00 0.000000000000000e+00
4.720986009227691e-04 -3.291924986812262e-03 0.000000000000000e+00 -1.866284804163246e-03 0.000000000000000e+00 0.000000000000000e+00
-4.251674489639374e-04 -2.362277361141775e-03 0.000000000000000e+00 -1.964977842144732e-03 0.000000000000000e+00 0.000000000000000e+00
3.890881917748619e-06 -2.338081650351017e-03 0.000000000000000e+00 1.053479599906729e-03 0.000000000000000e+00 0.000000000000000e+00
2.199487485492752e-06 3.663645392312151e-05 0.000000000000000e+00 7.977834665368856e-04 0.000000000000000e+00 0.000000000000000e+00
-4.240621130252345e-04 -3.263983382457445e-03 0.000000000000000e+00 -2.045486708935277e-03 0.000000000000000e+00 0.000000000000000e+00
1.963021755202447e-02 1.120691326391165e-01 0.000000000000000e+00 8.434360350615452e-02 0.000000000000000e+00 0.000000000000000e+00
7.113829693464082e-03 1.257492364334267e-01 0.000000000000000e+00 4.802634914970613e-02 0.000000000000000e+00 0.000000000000000e+00
1.093359941467578e-03 1.279269296405490e-01 0.000000000000000e+00 2.991596682237997e-02 0.000000000000000e+00 0.000000000000000e+00
2.170818517723809e-02 2.072144129013542e-01 0.000000000000000e+00 9.987547749246689e-02 0.000000000000000e+00 0.000000000000000e+00
1.994018344231530e-02 1.254998719888160e-01 0.000000000000000e+00 8.616332880990463e-02 0.000000000000000e+00 0.000000000000000e+00
1.355046494640683e-02 1.275104245536701e-01 0.000000000000000e+00 6.929402511244273e-02 0.000000000000000e+00 0.000000000000000e+00
7.113829693464082e-03 1.257492364334267e-01 0.000000000000000e+00 4.802634914970613e-02 0.000000000000000e+00 0.000000000000000e+00
1.963021755202447e-02 1.120691326391165e-01 0.000000000000000e+00 8.434360350615452e-02 0.000000000000000e+00 0.000000000000000e+00
        </DataArray>
  </PointData>
  <CellData>
        <DataArray type="Float64" Name="element_GL_strains_xyz" NumberOfComponents="6" format="ascii">
1.943994803461080e-04 3.607067996550528e-04 0.000000000000000e+00 1.386503437207509e-03 0.000000000000000e+00 0.000000000000000e+00
-2.594798290372347e-04 -1.152151327893619e-03 0.000000000000000e+00 1.522556099024266e-03 0.000000000000000e+00 0.000000000000000e+00
-2.825839569234462e-03 1.419732951490055e-01 0.000000000000000e+00 5.249684353102908e-02 0.000000000000000e+00 0.000000000000000e+00
1.916888043170806e-04 1.089940557306592e-01 0.000000000000000e+00 7.265229949578873e-02 0.000000000000000e+00 0.000000000000000e+00
        </DataArray>
        <DataArray type="Float64" Name="element_cauchy_stresses_xyz" NumberOfComponents="6" format="ascii">
1.994676735653768e-04 3.639709839806008e-04 0.000000000000000e+00 1.387473902477159e-03 0.000000000000000e+00 0.000000000000000e+00
-2.540149089356567e-04 -1.146549729737486e-03 0.000000000000000e+00 1.519909500798199e-03 0.000000000000000e+00 0.000000000000000e+00
1.347560334991730e-02 1.567500940681706e-01 0.000000000000000e+00 7.261797719323579e-02 0.000000000000000e+00 0.000000000000000e+00
2.074088277243998e-02 1.200676581011952e-01 0.000000000000000e+00 8.802101987745356e-02 0.000000000000000e+00 0.000000000000000e+00
        </DataArray>
      </CellData>

    </Piece>
  </UnstructuredGrid>
</VTKFile>
