<?xml version="1.0" ?> 
<!-- 
# vtk DataFile Version 3.0
-->
<VTKFile type="UnstructuredGrid" version="0.1" compressor="vtkZLibDataCompressor" byte_order="LittleEndian">
  <UnstructuredGrid>
    <FieldData>
      <DataArray type="Float64" Name="TIME" NumberOfTuples="1" format="ascii">
1.000000000000000e-01 
      </DataArray>
    </FieldData>

    <Piece NumberOfPoints="48" NumberOfCells="12" >
      <Points>
        <DataArray type="Float64" NumberOfComponents="3" format="ascii">
5.000000000000000e-01 2.500000000000000e-01 0.000000000000000e+00
5.000000000000000e-01 0.000000000000000e+00 0.000000000000000e+00
7.500000000000000e-01 0.000000000000000e+00 0.000000000000000e+00
7.500000000000000e-01 2.500000000000000e-01 0.000000000000000e+00
2.500000000000000e-01 2.500000000000000e-01 0.000000000000000e+00
2.500000000000000e-01 0.000000000000000e+00 0.000000000000000e+00
5.000000000000000e-01 0.000000000000000e+00 0.000000000000000e+00
5.000000000000000e-01 2.500000000000000e-01 0.000000000000000e+00
7.500000000000000e-01 5.000000000000000e-01 0.000000000000000e+00
7.500000000000000e-01 2.500000000000000e-01 0.000000000000000e+00
1.000000000000000e+00 2.500000000000000e-01 0.000000000000000e+00
1.000000000000000e+00 5.000000000000000e-01 0.000000000000000e+00
5.000000000000000e-01 5.000000000000000e-01 0.000000000000000e+00
5.000000000000000e-01 2.500000000000000e-01 0.000000000000000e+00
7.500000000000000e-01 2.500000000000000e-01 0.000000000000000e+00
7.500000000000000e-01 5.000000000000000e-01 0.000000000000000e+00
2.500000000000000e-01 5.000000000000000e-01 0.000000000000000e+00
2.500000000000000e-01 2.500000000000000e-01 0.000000000000000e+00
5.000000000000000e-01 2.500000000000000e-01 0.000000000000000e+00
5.000000000000000e-01 5.000000000000000e-01 0.000000000000000e+00
0.000000000000000e+00 5.000000000000000e-01 0.000000000000000e+00
0.000000000000000e+00 2.500000000000000e-01 0.000000000000000e+00
2.500000000000000e-01 2.500000000000000e-01 0.000000000000000e+00
2.500000000000000e-01 5.000000000000000e-01 0.000000000000000e+00
7.500000000000000e-01 7.500000000000000e-01 0.000000000000000e+00
7.500000000000000e-01 5.000000000000000e-01 0.000000000000000e+00
1.000000000000000e+00 5.000000000000000e-01 0.000000000000000e+00
1.000000000000000e+00 7.500000000000000e-01 0.000000000000000e+00
5.000000000000000e-01 7.500000000000000e-01 0.000000000000000e+00
5.000000000000000e-01 5.000000000000000e-01 0.000000000000000e+00
7.500000000000000e-01 5.000000000000000e-01 0.000000000000000e+00
7.500000000000000e-01 7.500000000000000e-01 0.000000000000000e+00
2.500000000000000e-01 7.500000000000000e-01 0.000000000000000e+00
2.500000000000000e-01 5.000000000000000e-01 0.000000000000000e+00
5.000000000000000e-01 5.000000000000000e-01 0.000000000000000e+00
5.000000000000000e-01 7.500000000000000e-01 0.000000000000000e+00
0.000000000000000e+00 7.500000000000000e-01 0.000000000000000e+00
0.000000000000000e+00 5.000000000000000e-01 0.000000000000000e+00
2.500000000000000e-01 5.000000000000000e-01 0.000000000000000e+00
2.500000000000000e-01 7.500000000000000e-01 0.000000000000000e+00
2.500000000000000e-01 1.000000000000000e+00 0.000000000000000e+00
2.500000000000000e-01 7.500000000000000e-01 0.000000000000000e+00
5.000000000000000e-01 7.500000000000000e-01 0.000000000000000e+00
5.000000000000000e-01 1.000000000000000e+00 0.000000000000000e+00
0.000000000000000e+00 1.000000000000000e+00 0.000000000000000e+00
0.000000000000000e+00 7.500000000000000e-01 0.000000000000000e+00
2.500000000000000e-01 7.500000000000000e-01 0.000000000000000e+00
2.500000000000000e-01 1.000000000000000e+00 0.000000000000000e+00
        </DataArray>
      </Points>

      <Cells>
        <DataArray type="Int32" Name="connectivity" format="ascii">
0 1 2 3 4 5 6 7 8 9 10 11 12 13 14 15 16 17 18 19 20 21 22 23 24 25 26 27 28 29 30 31 32 33 34 35 36 37 38 39 40 41 42 43 44 45 46 47 
        </DataArray>
        <DataArray type="Int32" Name="offsets" format="ascii">
4 8 12 16 20 24 28 32 36 40 44 48 
        </DataArray>
        <DataArray type="UInt8" Name="types" format="ascii">
9 9 9 9 9 9 9 9 9 9 9 9 
        </DataArray>
      </Cells>

  <PointData>
        <DataArray type="Float64" Name="displacement" NumberOfComponents="2" format="ascii">
1.755889154725783e-04 2.179960188951123e-04
0.000000000000000e+00 0.000000000000000e+00
0.000000000000000e+00 0.000000000000000e+00
2.058292735896461e-04 2.458540727946157e-04
1.942864853720384e-04 2.068826835002551e-04
0.000000000000000e+00 0.000000000000000e+00
0.000000000000000e+00 0.000000000000000e+00
1.755889154725783e-04 2.179960188951123e-04
-9.639220007731455e-04 -1.470336484174567e-03
2.058292735896461e-04 2.458540727946157e-04
1.935397072626022e-04 1.352186844130880e-04
-8.638464684379954e-04 -6.004435084522794e-04
-8.678768044312320e-04 -1.289549087569237e-03
1.755889154725783e-04 2.179960188951123e-04
2.058292735896461e-04 2.458540727946157e-04
-9.639220007731455e-04 -1.470336484174567e-03
-9.150284713761312e-04 -1.158405952685493e-03
1.942864853720384e-04 2.068826835002551e-04
1.755889154725783e-04 2.179960188951123e-04
-8.678768044312320e-04 -1.289549087569237e-03
-1.147997298790356e-03 -1.936572961278488e-03
2.534391294327476e-04 2.901274357817806e-04
1.942864853720384e-04 2.068826835002551e-04
-9.150284713761312e-04 -1.158405952685493e-03
4.309407181976889e-03 8.608135598910690e-03
-9.639220007731455e-04 -1.470336484174567e-03
-8.638464684379954e-04 -6.004435084522794e-04
3.510704881018885e-03 2.728831688363653e-03
4.207734713743973e-03 7.596891482612179e-03
-8.678768044312320e-04 -1.289549087569237e-03
-9.639220007731455e-04 -1.470336484174567e-03
4.309407181976889e-03 8.608135598910690e-03
4.102403420033563e-03 6.610440982698040e-03
-9.150284713761312e-04 -1.158405952685493e-03
-8.678768044312320e-04 -1.289549087569237e-03
4.207734713743973e-03 7.596891482612179e-03
4.874271930369083e-03 1.240171156677696e-02
-1.147997298790356e-03 -1.936572961278488e-03
-9.150284713761312e-04 -1.158405952685493e-03
4.102403420033563e-03 6.610440982698040e-03
5.000000000000000e-02 5.000000000000000e-02
4.102403420033563e-03 6.610440982698040e-03
4.207734713743973e-03 7.596891482612179e-03
5.000000000000000e-02 5.000000000000000e-02
5.000000000000000e-02 5.000000000000000e-02
4.874271930369083e-03 1.240171156677696e-02
4.102403420033563e-03 6.610440982698040e-03
5.000000000000000e-02 5.000000000000000e-02
        </DataArray>
        <DataArray type="Float64" Name="nodal_GL_strains_xyz" NumberOfComponents="6" format="ascii">
2.306549184294245e-05 -2.565367447601399e-03 0.000000000000000e+00 -8.290259616122325e-04 0.000000000000000e+00 0.000000000000000e+00
-1.442437151743614e-09 8.726094629952445e-04 0.000000000000000e+00 3.511778309450707e-04 0.000000000000000e+00 0.000000000000000e+00
-9.387848825269106e-09 9.842293826493862e-04 0.000000000000000e+00 4.116585471793941e-04 0.000000000000000e+00 0.000000000000000e+00
3.560870249672807e-05 -2.923356424577916e-03 0.000000000000000e+00 -1.046490520511513e-03 0.000000000000000e+00 0.000000000000000e+00
-1.559444339462926e-04 -2.304398957048442e-03 0.000000000000000e+00 -9.868503030128646e-04 0.000000000000000e+00 0.000000000000000e+00
-7.267886241636152e-09 8.281678475800763e-04 0.000000000000000e+00 3.885729707441277e-04 0.000000000000000e+00 0.000000000000000e+00
-1.442437151743614e-09 8.726094629952445e-04 0.000000000000000e+00 3.511778309450707e-04 0.000000000000000e+00 0.000000000000000e+00
2.306549184294245e-05 -2.565367447601399e-03 0.000000000000000e+00 -8.290259616122325e-04 0.000000000000000e+00 0.000000000000000e+00
-4.989122144310456e-06 1.724306762052925e-02 0.000000000000000e+00 4.804241554807246e-03 0.000000000000000e+00 0.000000000000000e+00
3.560870249672807e-05 -2.923356424577916e-03 0.000000000000000e+00 -1.046490520511513e-03 0.000000000000000e+00 0.000000000000000e+00
-4.971677086833395e-05 -1.194684627855234e-03 0.000000000000000e+00 -1.084809058804077e-03 0.000000000000000e+00 0.000000000000000e+00
3.748802792241166e-04 5.283190475500439e-03 0.000000000000000e+00 5.067303656418711e-03 0.000000000000000e+00 0.000000000000000e+00
-9.847389846942176e-05 1.518922745049238e-02 0.000000000000000e+00 3.715217569536618e-03 0.000000000000000e+00 0.000000000000000e+00
2.306549184294245e-05 -2.565367447601399e-03 0.000000000000000e+00 -8.290259616122325e-04 0.000000000000000e+00 0.000000000000000e+00
3.560870249672807e-05 -2.923356424577916e-03 0.000000000000000e+00 -1.046490520511513e-03 0.000000000000000e+00 0.000000000000000e+00
-4.989122144310456e-06 1.724306762052925e-02 0.000000000000000e+00 4.804241554807246e-03 0.000000000000000e+00 0.000000000000000e+00
5.475341004081669e-04 1.314618954230296e-02 0.000000000000000e+00 4.565616805858758e-03 0.000000000000000e+00 0.000000000000000e+00
-1.559444339462926e-04 -2.304398957048442e-03 0.000000000000000e+00 -9.868503030128646e-04 0.000000000000000e+00 0.000000000000000e+00
2.306549184294245e-05 -2.565367447601399e-03 0.000000000000000e+00 -8.290259616122325e-04 0.000000000000000e+00 0.000000000000000e+00
-9.847389846942176e-05 1.518922745049238e-02 0.000000000000000e+00 3.715217569536618e-03 0.000000000000000e+00 0.000000000000000e+00
9.071574742424398e-04 2.518827727401993e-02 0.000000000000000e+00 6.219172198889651e-03 0.000000000000000e+00 0.000000000000000e+00
-2.370856757166800e-04 -3.845421955656066e-03 0.000000000000000e+00 -1.313570336905212e-03 0.000000000000000e+00 0.000000000000000e+00
-1.559444339462926e-04 -2.304398957048442e-03 0.000000000000000e+00 -9.868503030128646e-04 0.000000000000000e+00 0.000000000000000e+00
5.475341004081669e-04 1.314618954230296e-02 0.000000000000000e+00 4.565616805858758e-03 0.000000000000000e+00 0.000000000000000e+00
-1.277130159416372e-03 1.186338553506555e-01 0.000000000000000e+00 4.552369410720005e-02 0.000000000000000e+00 0.000000000000000e+00
-4.989122144310456e-06 1.724306762052925e-02 0.000000000000000e+00 4.804241554807246e-03 0.000000000000000e+00 0.000000000000000e+00
3.748802792241166e-04 5.283190475500439e-03 0.000000000000000e+00 5.067303656418711e-03 0.000000000000000e+00 0.000000000000000e+00
-2.967551818488387e-03 1.188506660317515e-01 0.000000000000000e+00 3.775275682092560e-02 0.000000000000000e+00 0.000000000000000e+00
4.204995277724181e-04 1.185762649752292e-01 0.000000000000000e+00 5.309155281652557e-02 0.000000000000000e+00 0.000000000000000e+00
-9.847389846942176e-05 1.518922745049238e-02 0.000000000000000e+00 3.715217569536618e-03 0.000000000000000e+00 0.000000000000000e+00
-4.989122144310456e-06 1.724306762052925e-02 0.000000000000000e+00 4.804241554807246e-03 0.000000000000000e+00 0.000000000000000e+00
-1.277130159416372e-03 1.186338553506555e-01 0.000000000000000e+00 4.552369410720005e-02 0.000000000000000e+00 0.000000000000000e+00
-1.219445460270273e-03 1.185890570134635e-01 0.000000000000000e+00 4.555072099169739e-02 0.000000000000000e+00 0.000000000000000e+00
5.475341004081669e-04 1.314618954230296e-02 0.000000000000000e+00 4.565616805858758e-03 0.000000000000000e+00 0.000000000000000e+00
-9.847389846942176e-05 1.518922745049238e-02 0.000000000000000e+00 3.715217569536618e-03 0.000000000000000e+00 0.000000000000000e+00
4.204995277724181e-04 1.185762649752292e-01 0.000000000000000e+00 5.309155281652557e-02 0.000000000000000e+00 0.000000000000000e+00
-2.866598476429741e-03 1.185882117468597e-01 0.000000000000000e+00 3.820442302779181e-02 0.000000000000000e+00 0.000000000000000e+00
9.071574742424398e-04 2.518827727401993e-02 0.000000000000000e+00 6.219172198889651e-03 0.000000000000000e+00 0.000000000000000e+00
5.475341004081669e-04 1.314618954230296e-02 0.000000000000000e+00 4.565616805858758e-03 0.000000000000000e+00 0.000000000000000e+00
-1.219445460270273e-03 1.185890570134635e-01 0.000000000000000e+00 4.555072099169739e-02 0.000000000000000e+00 0.000000000000000e+00
-2.341251683031925e-05 2.054487691806442e-01 0.000000000000000e+00 9.179519315993293e-02 0.000000000000000e+00 0.000000000000000e+00
-1.219445460270273e-03 1.185890570134635e-01 0.000000000000000e+00 4.555072099169739e-02 0.000000000000000e+00 0.000000000000000e+00
4.204995277724181e-04 1.185762649752292e-01 0.000000000000000e+00 5.309155281652557e-02 0.000000000000000e+00 0.000000000000000e+00
-1.344754148955103e-06 2.007707306912756e-01 0.000000000000000e+00 9.158453057251204e-02 0.000000000000000e+00 0.000000000000000e+00
-4.551279463382542e-05 1.779473419536355e-01 0.000000000000000e+00 9.025145613926189e-02 0.000000000000000e+00 0.000000000000000e+00
-2.866598476429741e-03 1.185882117468597e-01 0.000000000000000e+00 3.820442302779181e-02 0.000000000000000e+00 0.000000000000000e+00
-1.219445460270273e-03 1.185890570134635e-01 0.000000000000000e+00 4.555072099169739e-02 0.000000000000000e+00 0.000000000000000e+00
-2.341251683031925e-05 2.054487691806442e-01 0.000000000000000e+00 9.179519315993293e-02 0.000000000000000e+00 0.000000000000000e+00
        </DataArray>
        <DataArray type="Float64" Name="nodal_cauchy_stresses_xyz" NumberOfComponents="6" format="ascii">
3.192904862696500e-05 -2.547040286147466e-03 0.000000000000000e+00 -8.162087022184352e-04 0.000000000000000e+00 0.000000000000000e+00
4.884924854376926e-07 8.733679614090916e-04 0.000000000000000e+00 3.517890184276462e-04 0.000000000000000e+00 0.000000000000000e+00
6.656308329745974e-07 9.851625456571938e-04 0.000000000000000e+00 4.124629963991466e-04 0.000000000000000e+00 0.000000000000000e+00
4.728757597492613e-05 -2.900250626105274e-03 0.000000000000000e+00 -1.030272106500742e-03 0.000000000000000e+00 0.000000000000000e+00
-1.459933214561865e-04 -2.290266533670441e-03 0.000000000000000e+00 -9.747548764207384e-04 0.000000000000000e+00 0.000000000000000e+00
5.864323018428115e-07 8.288343463724382e-04 0.000000000000000e+00 3.892039904533405e-04 0.000000000000000e+00 0.000000000000000e+00
4.884924854376926e-07 8.733679614090916e-04 0.000000000000000e+00 3.517890184276462e-04 0.000000000000000e+00 0.000000000000000e+00
3.192904862696500e-05 -2.547040286147466e-03 0.000000000000000e+00 -8.162087022184352e-04 0.000000000000000e+00 0.000000000000000e+00
2.393347484117997e-04 1.805136975061590e-02 0.000000000000000e+00 5.248220567352137e-03 0.000000000000000e+00 0.000000000000000e+00
4.728757597492613e-05 -2.900250626105274e-03 0.000000000000000e+00 -1.030272106500742e-03 0.000000000000000e+00 0.000000000000000e+00
-3.980065867435854e-05 -1.191913170639019e-03 0.000000000000000e+00 -1.078677544750141e-03 0.000000000000000e+00 0.000000000000000e+00
5.563281104260425e-04 5.284264221390828e-03 0.000000000000000e+00 5.176433005768975e-03 0.000000000000000e+00 0.000000000000000e+00
1.128572825225256e-04 1.584684792571322e-02 0.000000000000000e+00 4.096597422621646e-03 0.000000000000000e+00 0.000000000000000e+00
3.192904862696500e-05 -2.547040286147466e-03 0.000000000000000e+00 -8.162087022184352e-04 0.000000000000000e+00 0.000000000000000e+00
4.728757597492613e-05 -2.900250626105274e-03 0.000000000000000e+00 -1.030272106500742e-03 0.000000000000000e+00 0.000000000000000e+00
2.393347484117997e-04 1.805136975061590e-02 0.000000000000000e+00 5.248220567352137e-03 0.000000000000000e+00 0.000000000000000e+00
7.615687661147590e-04 1.359943795023883e-02 0.000000000000000e+00 4.887957790825080e-03 0.000000000000000e+00 0.000000000000000e+00
-1.459933214561865e-04 -2.290266533670441e-03 0.000000000000000e+00 -9.747548764207384e-04 0.000000000000000e+00 0.000000000000000e+00
3.192904862696500e-05 -2.547040286147466e-03 0.000000000000000e+00 -8.162087022184352e-04 0.000000000000000e+00 0.000000000000000e+00
1.128572825225256e-04 1.584684792571322e-02 0.000000000000000e+00 4.096597422621646e-03 0.000000000000000e+00 0.000000000000000e+00
1.220772369434418e-03 2.681895563262410e-02 0.000000000000000e+00 6.941449780258568e-03 0.000000000000000e+00 0.000000000000000e+00
-2.212089702898747e-04 -3.807336898991139e-03 0.000000000000000e+00 -1.288769600189898e-03 0.000000000000000e+00 0.000000000000000e+00
-1.459933214561865e-04 -2.290266533670441e-03 0.000000000000000e+00 -9.747548764207384e-04 0.000000000000000e+00 0.000000000000000e+00
7.615687661147590e-04 1.359943795023883e-02 0.000000000000000e+00 4.887957790825080e-03 0.000000000000000e+00 0.000000000000000e+00
1.517064792754576e-02 1.349026392053784e-01 0.000000000000000e+00 6.376480677705332e-02 0.000000000000000e+00 0.000000000000000e+00
2.393347484117997e-04 1.805136975061590e-02 0.000000000000000e+00 5.248220567352137e-03 0.000000000000000e+00 0.000000000000000e+00
5.563281104260425e-04 5.284264221390828e-03 0.000000000000000e+00 5.176433005768975e-03 0.000000000000000e+00 0.000000000000000e+00
1.276316794758232e-02 1.380806612983944e-01 0.000000000000000e+00 5.844515028973338e-02 0.000000000000000e+00 0.000000000000000e+00
1.823385687876263e-02 1.366854643387215e-01 0.000000000000000e+00 7.191245002450308e-02 0.000000000000000e+00 0.000000000000000e+00
1.128572825225256e-04 1.584684792571322e-02 0.000000000000000e+00 4.096597422621646e-03 0.000000000000000e+00 0.000000000000000e+00
2.393347484117997e-04 1.805136975061590e-02 0.000000000000000e+00 5.248220567352137e-03 0.000000000000000e+00 0.000000000000000e+00
1.517064792754576e-02 1.349026392053784e-01 0.000000000000000e+00 6.376480677705332e-02 0.000000000000000e+00 0.000000000000000e+00
1.538872405995189e-02 1.361220326686615e-01 0.000000000000000e+00 6.462572909368719e-02 0.000000000000000e+00 0.000000000000000e+00
7.615687661147590e-04 1.359943795023883e-02 0.000000000000000e+00 4.887957790825080e-03 0.000000000000000e+00 0.000000000000000e+00
1.128572825225256e-04 1.584684792571322e-02 0.000000000000000e+00 4.096597422621646e-03 0.000000000000000e+00 0.000000000000000e+00
1.823385687876263e-02 1.366854643387215e-01 0.000000000000000e+00 7.191245002450308e-02 0.000000000000000e+00 0.000000000000000e+00
1.191760101259989e-02 1.316949974968216e-01 0.000000000000000e+00 5.471429470724080e-02 0.000000000000000e+00 0.000000000000000e+00
1.220772369434418e-03 2.681895563262410e-02 0.000000000000000e+00 6.941449780258568e-03 0.000000000000000e+00 0.000000000000000e+00
7.615687661147590e-04 1.359943795023883e-02 0.000000000000000e+00 4.887957790825080e-03 0.000000000000000e+00 0.000000000000000e+00
1.538872405995189e-02 1.361220326686615e-01 0.000000000000000e+00 6.462572909368719e-02 0.000000000000000e+00 0.000000000000000e+00
3.459772098732455e-02 2.409963094620460e-01 0.000000000000000e+00 1.294929930371523e-01 0.000000000000000e+00 0.000000000000000e+00
1.538872405995189e-02 1.361220326686615e-01 0.000000000000000e+00 6.462572909368719e-02 0.000000000000000e+00 0.000000000000000e+00
1.823385687876263e-02 1.366854643387215e-01 0.000000000000000e+00 7.191245002450308e-02 0.000000000000000e+00 0.000000000000000e+00
3.444337263207365e-02 2.348175884783495e-01 0.000000000000000e+00 1.283584490750145e-01 0.000000000000000e+00 0.000000000000000e+00
3.331492150154140e-02 2.044981595601814e-01 0.000000000000000e+00 1.223313857652794e-01 0.000000000000000e+00 0.000000000000000e+00
1.191760101259989e-02 1.316949974968216e-01 0.000000000000000e+00 5.471429470724080e-02 0.000000000000000e+00 0.000000000000000e+00
1.538872405995189e-02 1.361220326686615e-01 0.000000000000000e+00 6.462572909368719e-02 0.000000000000000e+00 0.000000000000000e+00
3.459772098732455e-02 2.409963094620460e-01 0.000000000000000e+00 1.294929930371523e-01 0.000000000000000e+00 0.000000000000000e+00
        </DataArray>
  </PointData>
  <CellData>
        <DataArray type="Float64" Name="element_GL_strains_xyz" NumberOfComponents="6" format="ascii">
6.048522436880033e-05 9.284225838980253e-04 0.000000000000000e+00 4.093251553286907e-04 0.000000000000000e+00 0.000000000000000e+00
-3.739387818479933e-05 8.503923796421287e-04 0.000000000000000e+00 3.809843483361502e-04 0.000000000000000e+00 0.000000000000000e+00
1.773896634609806e-04 -4.881112678886856e-03 0.000000000000000e+00 -1.471994061154247e-03 0.000000000000000e+00 0.000000000000000e+00
-1.315145871514101e-04 -6.416850070707303e-03 0.000000000000000e+00 -2.364869048647748e-03 0.000000000000000e+00 0.000000000000000e+00
5.695500968444511e-05 -5.719875826573989e-03 0.000000000000000e+00 -2.272243335685254e-03 0.000000000000000e+00 0.000000000000000e+00
3.492102015067444e-04 -7.145013974243997e-03 0.000000000000000e+00 -1.821694253353282e-03 0.000000000000000e+00 0.000000000000000e+00
-1.315182675892229e-03 2.739209943837539e-02 0.000000000000000e+00 4.490659230510851e-03 0.000000000000000e+00 0.000000000000000e+00
1.360727810945095e-05 3.886433563195635e-02 0.000000000000000e+00 1.121101297152728e-02 0.000000000000000e+00 0.000000000000000e+00
3.073104583957154e-04 3.406994619905257e-02 0.000000000000000e+00 1.097991958903807e-02 0.000000000000000e+00 0.000000000000000e+00
-9.975113196161456e-04 4.546490825719740e-02 0.000000000000000e+00 5.793048282650119e-03 0.000000000000000e+00 0.000000000000000e+00
2.132870654749652e-04 2.031208163324227e-01 0.000000000000000e+00 9.286488842923482e-02 0.000000000000000e+00 0.000000000000000e+00
-1.452711431403769e-03 1.916870054282381e-01 0.000000000000000e+00 8.415349291229614e-02 0.000000000000000e+00 0.000000000000000e+00
        </DataArray>
        <DataArray type="Float64" Name="element_cauchy_stresses_xyz" NumberOfComponents="6" format="ascii">
6.105971739028254e-05 9.292754036704958e-04 0.000000000000000e+00 4.100389970329564e-04 0.000000000000000e+00 0.000000000000000e+00
-3.679614789944777e-05 8.511641160666217e-04 0.000000000000000e+00 3.816120787667105e-04 0.000000000000000e+00 0.000000000000000e+00
1.914080399039206e-04 -4.858210239912563e-03 0.000000000000000e+00 -1.449675498769412e-03 0.000000000000000e+00 0.000000000000000e+00
-1.113630950828741e-04 -6.374763633080540e-03 0.000000000000000e+00 -2.336357577504887e-03 0.000000000000000e+00 0.000000000000000e+00
7.687213940288141e-05 -5.685549045574235e-03 0.000000000000000e+00 -2.247661040043987e-03 0.000000000000000e+00 0.000000000000000e+00
3.703306402350207e-04 -7.094268484930976e-03 0.000000000000000e+00 -1.784646747605143e-03 0.000000000000000e+00 0.000000000000000e+00
-1.097979250602184e-03 2.819538568662462e-02 0.000000000000000e+00 5.047761014000791e-03 0.000000000000000e+00 0.000000000000000e+00
4.764060825670642e-04 4.038051952950554e-02 0.000000000000000e+00 1.201687679887924e-02 0.000000000000000e+00 0.000000000000000e+00
7.399554569251081e-04 3.523627785595289e-02 0.000000000000000e+00 1.166892415197587e-02 0.000000000000000e+00 0.000000000000000e+00
-6.851591953545781e-04 4.752029852546408e-02 0.000000000000000e+00 6.823230642915298e-03 0.000000000000000e+00 0.000000000000000e+00
3.509290770923178e-02 2.383662948115748e-01 0.000000000000000e+00 1.301750320715083e-01 0.000000000000000e+00 0.000000000000000e+00
3.054401760404364e-02 2.208323384743370e-01 0.000000000000000e+00 1.187691958607713e-01 0.000000000000000e+00 0.000000000000000e+00
        </DataArray>
      </CellData>

    </Piece>
  </UnstructuredGrid>
</VTKFile>
