<?xml version="1.0" ?> 
<!-- 
# vtk DataFile Version 3.0
-->
<VTKFile type="UnstructuredGrid" version="0.1" compressor="vtkZLibDataCompressor" byte_order="LittleEndian">
  <UnstructuredGrid>
    <FieldData>
      <DataArray type="Float64" Name="TIME" NumberOfTuples="1" format="ascii">
1.000000000000000e+00 
      </DataArray>
      <DataArray type="Float64" Name="sum_coupling_force_beam" NumberOfTuples="1" NumberOfComponents="3" format="ascii">
1.290139743711790e+00 -5.295361089657868e-03 -5.495945340440453e-01 
      </DataArray>
      <DataArray type="Float64" Name="sum_coupling_force_solid" NumberOfTuples="1" NumberOfComponents="3" format="ascii">
-1.290139743711790e+00 5.295361089657870e-03 5.495945340440453e-01 
      </DataArray>
      <DataArray type="Float64" Name="sum_coupling_moment_beam" NumberOfTuples="1" NumberOfComponents="3" format="ascii">
-1.533769186511637e-03 -2.303292463009963e+00 4.778467465559900e-02 
      </DataArray>
      <DataArray type="Float64" Name="sum_coupling_moment_solid" NumberOfTuples="1" NumberOfComponents="3" format="ascii">
1.533769186511662e-03 2.303292463009962e+00 -4.778467465559903e-02 
      </DataArray>
    </FieldData>

    <Piece NumberOfPoints="11" NumberOfCells="0" >
      <Points>
        <DataArray type="Float64" NumberOfComponents="3" format="ascii">
4.000000000000000e+00 -5.000000000000000e-01 1.000000000000000e-01
4.000000000000000e+00 -5.000000000000000e-01 -1.000000000000000e-01
4.000000000000000e+00 5.000000000000000e-01 -1.000000000000000e-01
4.000000000000000e+00 5.000000000000000e-01 1.000000000000000e-01
5.000000000000000e+00 -5.000000000000000e-01 1.000000000000000e-01
5.000000000000000e+00 -5.000000000000000e-01 -1.000000000000000e-01
5.000000000000000e+00 5.000000000000000e-01 -1.000000000000000e-01
5.000000000000000e+00 5.000000000000000e-01 1.000000000000000e-01
4.000000000000000e+00 0.000000000000000e+00 2.000000000000000e-01
4.500000000000000e+00 0.000000000000000e+00 2.000000000000000e-01
5.000000000000000e+00 0.000000000000000e+00 2.000000000000000e-01
        </DataArray>
      </Points>

      <Cells>
        <DataArray type="Int32" Name="connectivity" format="ascii">

        </DataArray>
        <DataArray type="Int32" Name="offsets" format="ascii">

        </DataArray>
        <DataArray type="UInt8" Name="types" format="ascii">

        </DataArray>
      </Cells>

  <PointData>
        <DataArray type="Float64" Name="displacement" NumberOfComponents="3" format="ascii">
-2.802254009221703e-01 1.414851857064620e-02 1.975551240495107e+00
-2.128818673297478e-01 1.360341765190014e-02 1.987210593328011e+00
-2.128806848945362e-01 1.359931927011383e-02 1.984341103734593e+00
-2.803331884497805e-01 1.414429733613657e-02 1.972638441411621e+00
-3.388759428085991e-01 1.485038234494789e-02 2.313048060762381e+00
-2.713043905559008e-01 1.452060544175528e-02 2.324840548382140e+00
-2.713956020881290e-01 1.451906243060309e-02 2.323028046456602e+00
-3.391800970572915e-01 1.484865908287815e-02 2.311165098715908e+00
-3.138522212075571e-01 1.439231980750831e-02 1.968589189111047e+00
1.447191574713592e+00 -2.782977429965792e-01 2.495312902049129e-01
-3.709474114395544e-01 1.399284350887384e-02 2.300796393037977e+00
        </DataArray>
        <DataArray type="Float64" Name="force_beam" NumberOfComponents="3" format="ascii">
0.000000000000000e+00 0.000000000000000e+00 0.000000000000000e+00
0.000000000000000e+00 0.000000000000000e+00 0.000000000000000e+00
0.000000000000000e+00 0.000000000000000e+00 0.000000000000000e+00
0.000000000000000e+00 0.000000000000000e+00 0.000000000000000e+00
0.000000000000000e+00 0.000000000000000e+00 0.000000000000000e+00
0.000000000000000e+00 0.000000000000000e+00 0.000000000000000e+00
0.000000000000000e+00 0.000000000000000e+00 0.000000000000000e+00
0.000000000000000e+00 0.000000000000000e+00 0.000000000000000e+00
4.272018419444378e-02 1.540368892590754e-02 8.973206842178659e-02
0.000000000000000e+00 0.000000000000000e+00 0.000000000000000e+00
3.788767557333821e-02 -1.212668839738760e-02 -5.442040163333430e-02
        </DataArray>
        <DataArray type="Float64" Name="force_solid" NumberOfComponents="3" format="ascii">
-2.303825972335712e-02 -6.579445883314709e-03 -3.933788067323186e-02
0.000000000000000e+00 0.000000000000000e+00 0.000000000000000e+00
0.000000000000000e+00 0.000000000000000e+00 0.000000000000000e+00
-2.390526742781976e-02 -6.572448267314132e-03 -3.690321062016158e-02
-1.945854754752460e-02 5.359177639909425e-03 2.720430955178938e-02
0.000000000000000e+00 0.000000000000000e+00 0.000000000000000e+00
0.000000000000000e+00 0.000000000000000e+00 0.000000000000000e+00
-1.874361786447872e-02 5.355630493283011e-03 2.520533253450729e-02
0.000000000000000e+00 0.000000000000000e+00 0.000000000000000e+00
0.000000000000000e+00 0.000000000000000e+00 0.000000000000000e+00
0.000000000000000e+00 0.000000000000000e+00 0.000000000000000e+00
        </DataArray>
      </PointData>

    </Piece>
  </UnstructuredGrid>
</VTKFile>
