<?xml version="1.0" ?> 
<!-- 
# vtk DataFile Version 3.0
-->
<VTKFile type="UnstructuredGrid" version="0.1" compressor="vtkZLibDataCompressor" byte_order="LittleEndian">
  <UnstructuredGrid>
    <FieldData>
      <DataArray type="Float64" Name="TIME" NumberOfTuples="1" format="ascii">
1.000000000000000e+00 
      </DataArray>
      <DataArray type="Float64" Name="sum_coupling_force_beam" NumberOfTuples="1" NumberOfComponents="3" format="ascii">
1.290139743711790e+00 -5.295361089657868e-03 -5.495945340440453e-01 
      </DataArray>
      <DataArray type="Float64" Name="sum_coupling_force_solid" NumberOfTuples="1" NumberOfComponents="3" format="ascii">
-1.290139743711790e+00 5.295361089657870e-03 5.495945340440453e-01 
      </DataArray>
      <DataArray type="Float64" Name="sum_coupling_moment_beam" NumberOfTuples="1" NumberOfComponents="3" format="ascii">
-1.533769186511637e-03 -2.303292463009963e+00 4.778467465559900e-02 
      </DataArray>
      <DataArray type="Float64" Name="sum_coupling_moment_solid" NumberOfTuples="1" NumberOfComponents="3" format="ascii">
1.533769186511662e-03 2.303292463009962e+00 -4.778467465559903e-02 
      </DataArray>
    </FieldData>

    <Piece NumberOfPoints="16" NumberOfCells="0" >
      <Points>
        <DataArray type="Float64" NumberOfComponents="3" format="ascii">
-5.000000000000000e+00 -5.000000000000000e-01 1.000000000000000e-01
-5.000000000000000e+00 -5.000000000000000e-01 -1.000000000000000e-01
-5.000000000000000e+00 5.000000000000000e-01 -1.000000000000000e-01
-5.000000000000000e+00 5.000000000000000e-01 1.000000000000000e-01
-4.000000000000000e+00 -5.000000000000000e-01 1.000000000000000e-01
-4.000000000000000e+00 -5.000000000000000e-01 -1.000000000000000e-01
-4.000000000000000e+00 5.000000000000000e-01 -1.000000000000000e-01
-4.000000000000000e+00 5.000000000000000e-01 1.000000000000000e-01
-3.000000000000000e+00 -5.000000000000000e-01 1.000000000000000e-01
-3.000000000000000e+00 5.000000000000000e-01 1.000000000000000e-01
-5.000000000000000e+00 0.000000000000000e+00 2.000000000000000e-01
-4.500000000000000e+00 0.000000000000000e+00 2.000000000000000e-01
-4.000000000000000e+00 0.000000000000000e+00 2.000000000000000e-01
-3.500000000000000e+00 0.000000000000000e+00 2.000000000000000e-01
-3.000000000000000e+00 0.000000000000000e+00 2.000000000000000e-01
-2.500000000000000e+00 0.000000000000000e+00 2.000000000000000e-01
        </DataArray>
      </Points>

      <Cells>
        <DataArray type="Int32" Name="connectivity" format="ascii">

        </DataArray>
        <DataArray type="Int32" Name="offsets" format="ascii">

        </DataArray>
        <DataArray type="UInt8" Name="types" format="ascii">

        </DataArray>
      </Cells>

  <PointData>
        <DataArray type="Float64" Name="displacement" NumberOfComponents="3" format="ascii">
0.000000000000000e+00 0.000000000000000e+00 0.000000000000000e+00
0.000000000000000e+00 0.000000000000000e+00 0.000000000000000e+00
0.000000000000000e+00 0.000000000000000e+00 0.000000000000000e+00
0.000000000000000e+00 0.000000000000000e+00 0.000000000000000e+00
-2.463030213045514e-03 4.707871430402207e-04 3.201509313790599e-02
1.047709673818958e-02 3.743207055737901e-04 3.242332602706928e-02
9.654038404045674e-03 3.738512590531169e-04 3.188833867991730e-02
-3.139226780146064e-03 4.704232799653440e-04 3.148967277590279e-02
-9.667813329318145e-03 1.700261119464406e-03 1.288867216852360e-01
-1.082244243452903e-02 1.698646187375149e-03 1.274750631088326e-01
0.000000000000000e+00 0.000000000000000e+00 0.000000000000000e+00
7.693982165569908e-02 -4.032118289689132e-02 2.355491056008829e-03
-1.041049647686235e-02 5.986586301458478e-04 3.809334743527357e-02
2.306661372987425e-01 -9.561809664605227e-02 1.261795628368614e-02
-2.318797739105734e-02 1.879223993102096e-03 1.322854235545014e-01
3.839913758301996e-01 -1.523646233017240e-01 3.157638059845408e-02
        </DataArray>
        <DataArray type="Float64" Name="force_beam" NumberOfComponents="3" format="ascii">
0.000000000000000e+00 0.000000000000000e+00 0.000000000000000e+00
0.000000000000000e+00 0.000000000000000e+00 0.000000000000000e+00
0.000000000000000e+00 0.000000000000000e+00 0.000000000000000e+00
0.000000000000000e+00 0.000000000000000e+00 0.000000000000000e+00
0.000000000000000e+00 0.000000000000000e+00 0.000000000000000e+00
0.000000000000000e+00 0.000000000000000e+00 0.000000000000000e+00
0.000000000000000e+00 0.000000000000000e+00 0.000000000000000e+00
0.000000000000000e+00 0.000000000000000e+00 0.000000000000000e+00
0.000000000000000e+00 0.000000000000000e+00 0.000000000000000e+00
0.000000000000000e+00 0.000000000000000e+00 0.000000000000000e+00
4.436194648969777e-01 -9.614783039249753e-03 -5.180476637846896e-01
0.000000000000000e+00 0.000000000000000e+00 0.000000000000000e+00
1.013652963635772e-01 -3.087970947682336e-03 -8.697891581906736e-02
0.000000000000000e+00 0.000000000000000e+00 0.000000000000000e+00
5.117152750313046e-02 8.155191773608010e-04 -5.518235114229105e-02
0.000000000000000e+00 0.000000000000000e+00 0.000000000000000e+00
        </DataArray>
        <DataArray type="Float64" Name="force_solid" NumberOfComponents="3" format="ascii">
-2.086472066143209e-01 4.559525572098351e-03 2.215404002327049e-01
0.000000000000000e+00 0.000000000000000e+00 0.000000000000000e+00
0.000000000000000e+00 0.000000000000000e+00 0.000000000000000e+00
-2.085994756000118e-01 4.559523329588604e-03 2.196737957387495e-01
-6.547823611468423e-02 1.795508326455977e-03 8.130286806356468e-02
0.000000000000000e+00 0.000000000000000e+00 0.000000000000000e+00
0.000000000000000e+00 0.000000000000000e+00 0.000000000000000e+00
-6.542243313685638e-02 1.795150331381005e-03 8.057804528405783e-02
-2.378885330149257e-02 -4.176660787242161e-04 2.321756290841485e-02
-2.380925123778296e-02 -4.174553694344764e-04 2.338656889502868e-02
0.000000000000000e+00 0.000000000000000e+00 0.000000000000000e+00
0.000000000000000e+00 0.000000000000000e+00 0.000000000000000e+00
0.000000000000000e+00 0.000000000000000e+00 0.000000000000000e+00
0.000000000000000e+00 0.000000000000000e+00 0.000000000000000e+00
0.000000000000000e+00 0.000000000000000e+00 0.000000000000000e+00
0.000000000000000e+00 0.000000000000000e+00 0.000000000000000e+00
        </DataArray>
      </PointData>

    </Piece>
  </UnstructuredGrid>
</VTKFile>
