<?xml version="1.0" ?> 
<!-- 
# vtk DataFile Version 3.0
-->
<VTKFile type="UnstructuredGrid" version="0.1" compressor="vtkZLibDataCompressor" byte_order="LittleEndian">
  <UnstructuredGrid>
    <FieldData>
      <DataArray type="Float64" Name="TIME" NumberOfTuples="1" format="ascii">
1.000000000000000e+00 
      </DataArray>
      <DataArray type="Float64" Name="sum_coupling_force_beam" NumberOfTuples="1" NumberOfComponents="3" format="ascii">
1.290139743711790e+00 -5.295361089657868e-03 -5.495945340440453e-01 
      </DataArray>
      <DataArray type="Float64" Name="sum_coupling_force_solid" NumberOfTuples="1" NumberOfComponents="3" format="ascii">
-1.290139743711790e+00 5.295361089657870e-03 5.495945340440453e-01 
      </DataArray>
      <DataArray type="Float64" Name="sum_coupling_moment_beam" NumberOfTuples="1" NumberOfComponents="3" format="ascii">
-1.533769186511637e-03 -2.303292463009963e+00 4.778467465559900e-02 
      </DataArray>
      <DataArray type="Float64" Name="sum_coupling_moment_solid" NumberOfTuples="1" NumberOfComponents="3" format="ascii">
1.533769186511662e-03 2.303292463009962e+00 -4.778467465559903e-02 
      </DataArray>
    </FieldData>

    <Piece NumberOfPoints="38" NumberOfCells="0" >
      <Points>
        <DataArray type="Float64" NumberOfComponents="3" format="ascii">
-3.000000000000000e+00 -5.000000000000000e-01 -1.000000000000000e-01
-3.000000000000000e+00 5.000000000000000e-01 -1.000000000000000e-01
-2.000000000000000e+00 -5.000000000000000e-01 1.000000000000000e-01
-2.000000000000000e+00 -5.000000000000000e-01 -1.000000000000000e-01
-2.000000000000000e+00 5.000000000000000e-01 -1.000000000000000e-01
-2.000000000000000e+00 5.000000000000000e-01 1.000000000000000e-01
-1.000000000000000e+00 -5.000000000000000e-01 1.000000000000000e-01
-1.000000000000000e+00 -5.000000000000000e-01 -1.000000000000000e-01
-1.000000000000000e+00 5.000000000000000e-01 -1.000000000000000e-01
-1.000000000000000e+00 5.000000000000000e-01 1.000000000000000e-01
0.000000000000000e+00 -5.000000000000000e-01 1.000000000000000e-01
0.000000000000000e+00 -5.000000000000000e-01 -1.000000000000000e-01
0.000000000000000e+00 5.000000000000000e-01 -1.000000000000000e-01
0.000000000000000e+00 5.000000000000000e-01 1.000000000000000e-01
1.000000000000000e+00 -5.000000000000000e-01 1.000000000000000e-01
1.000000000000000e+00 -5.000000000000000e-01 -1.000000000000000e-01
1.000000000000000e+00 5.000000000000000e-01 -1.000000000000000e-01
1.000000000000000e+00 5.000000000000000e-01 1.000000000000000e-01
2.000000000000000e+00 -5.000000000000000e-01 1.000000000000000e-01
2.000000000000000e+00 -5.000000000000000e-01 -1.000000000000000e-01
2.000000000000000e+00 5.000000000000000e-01 -1.000000000000000e-01
2.000000000000000e+00 5.000000000000000e-01 1.000000000000000e-01
3.000000000000000e+00 -5.000000000000000e-01 1.000000000000000e-01
3.000000000000000e+00 -5.000000000000000e-01 -1.000000000000000e-01
3.000000000000000e+00 5.000000000000000e-01 -1.000000000000000e-01
3.000000000000000e+00 5.000000000000000e-01 1.000000000000000e-01
-2.000000000000000e+00 0.000000000000000e+00 2.000000000000000e-01
-1.500000000000000e+00 0.000000000000000e+00 2.000000000000000e-01
-1.000000000000000e+00 0.000000000000000e+00 2.000000000000000e-01
-5.000000000000000e-01 0.000000000000000e+00 2.000000000000000e-01
0.000000000000000e+00 0.000000000000000e+00 2.000000000000000e-01
5.000000000000000e-01 0.000000000000000e+00 2.000000000000000e-01
1.000000000000000e+00 0.000000000000000e+00 2.000000000000000e-01
1.500000000000000e+00 0.000000000000000e+00 2.000000000000000e-01
2.000000000000000e+00 0.000000000000000e+00 2.000000000000000e-01
2.500000000000000e+00 0.000000000000000e+00 2.000000000000000e-01
3.000000000000000e+00 0.000000000000000e+00 2.000000000000000e-01
3.500000000000000e+00 0.000000000000000e+00 2.000000000000000e-01
        </DataArray>
      </Points>

      <Cells>
        <DataArray type="Int32" Name="connectivity" format="ascii">

        </DataArray>
        <DataArray type="Int32" Name="offsets" format="ascii">

        </DataArray>
        <DataArray type="UInt8" Name="types" format="ascii">

        </DataArray>
      </Cells>

  <PointData>
        <DataArray type="Float64" Name="displacement" NumberOfComponents="3" format="ascii">
1.587399784431190e-02 1.449187887203297e-03 1.304996478886448e-01
1.457504130701713e-02 1.447368104469193e-03 1.290696575453768e-01
-2.363806926540247e-02 3.411563547598964e-03 2.840446932654794e-01
1.261733843973459e-02 3.042151899094713e-03 2.873405261641843e-01
1.113282484255085e-02 3.038760844928719e-03 2.851885319862466e-01
-2.501835556413854e-02 3.408363569278988e-03 2.819120567073772e-01
-4.642481372528666e-02 5.401396690996642e-03 4.884367535738016e-01
-1.113968054835500e-03 4.951008829077599e-03 4.936276030860041e-01
-2.591256711417926e-03 4.946406539336866e-03 4.909719891088641e-01
-4.782745340494023e-02 5.396947780690328e-03 4.857984899721792e-01
-7.854804003161352e-02 7.490092045457684e-03 7.341770930883196e-01
-2.576263384855674e-02 6.983430080773630e-03 7.412593583296017e-01
-2.708375895885859e-02 6.978104933626419e-03 7.382729510434544e-01
-7.981521597795645e-02 7.484880061927893e-03 7.312052043700565e-01
-1.195170612655380e-01 9.521570984566569e-03 1.013335704338388e+00
-6.081966008583759e-02 8.974457428187501e-03 1.022141163227705e+00
-6.187943777239304e-02 8.968811150273559e-03 1.018951168546453e+00
-1.205339533030182e-01 9.516010922714518e-03 1.010159206992079e+00
-1.681102340181931e-01 1.138135512462187e-02 1.318312015345858e+00
-1.050308800291285e-01 1.079952357461717e-02 1.328514280641429e+00
-1.057394866103243e-01 1.079383799350890e-02 1.325219471145192e+00
-1.687942320123921e-01 1.137571257017887e-02 1.315024446242110e+00
-2.224415777591514e-01 1.293518975424465e-02 1.641469238031712e+00
-1.564582835921239e-01 1.235021528014462e-02 1.652675484201437e+00
-1.568056370346157e-01 1.234492547204768e-02 1.649441329056293e+00
-2.227904973312226e-01 1.292989435146694e-02 1.638236264935311e+00
-4.282905714773447e-02 3.609281469611764e-03 2.853368147525552e-01
5.367508437621598e-01 -2.004221217758342e-01 5.761316839567507e-02
-7.028049172979496e-02 5.637745662817792e-03 4.880974202207784e-01
6.890026643640305e-01 -2.369883983580945e-01 8.791011623166357e-02
-1.060009372438818e-01 7.731050576560945e-03 7.319399465672705e-01
8.407445095220570e-01 -2.649181737341683e-01 1.218129460792133e-01
-1.497468553360286e-01 9.788643700158308e-03 1.009642746318644e+00
9.922315069341521e-01 -2.820361208764339e-01 1.564269149312002e-01
-2.001685086285600e-01 1.162756148697946e-02 1.313067867816806e+00
1.143489452596942e+00 -2.909283677628255e-01 1.916145925295933e-01
-2.556842388069766e-01 1.321662473117717e-02 1.635417789644685e+00
1.295070710131695e+00 -2.887687650261237e-01 2.229780526670503e-01
        </DataArray>
        <DataArray type="Float64" Name="force_beam" NumberOfComponents="3" format="ascii">
0.000000000000000e+00 0.000000000000000e+00 0.000000000000000e+00
0.000000000000000e+00 0.000000000000000e+00 0.000000000000000e+00
0.000000000000000e+00 0.000000000000000e+00 0.000000000000000e+00
0.000000000000000e+00 0.000000000000000e+00 0.000000000000000e+00
0.000000000000000e+00 0.000000000000000e+00 0.000000000000000e+00
0.000000000000000e+00 0.000000000000000e+00 0.000000000000000e+00
0.000000000000000e+00 0.000000000000000e+00 0.000000000000000e+00
0.000000000000000e+00 0.000000000000000e+00 0.000000000000000e+00
0.000000000000000e+00 0.000000000000000e+00 0.000000000000000e+00
0.000000000000000e+00 0.000000000000000e+00 0.000000000000000e+00
0.000000000000000e+00 0.000000000000000e+00 0.000000000000000e+00
0.000000000000000e+00 0.000000000000000e+00 0.000000000000000e+00
0.000000000000000e+00 0.000000000000000e+00 0.000000000000000e+00
0.000000000000000e+00 0.000000000000000e+00 0.000000000000000e+00
0.000000000000000e+00 0.000000000000000e+00 0.000000000000000e+00
0.000000000000000e+00 0.000000000000000e+00 0.000000000000000e+00
0.000000000000000e+00 0.000000000000000e+00 0.000000000000000e+00
0.000000000000000e+00 0.000000000000000e+00 0.000000000000000e+00
0.000000000000000e+00 0.000000000000000e+00 0.000000000000000e+00
0.000000000000000e+00 0.000000000000000e+00 0.000000000000000e+00
0.000000000000000e+00 0.000000000000000e+00 0.000000000000000e+00
0.000000000000000e+00 0.000000000000000e+00 0.000000000000000e+00
0.000000000000000e+00 0.000000000000000e+00 0.000000000000000e+00
0.000000000000000e+00 0.000000000000000e+00 0.000000000000000e+00
0.000000000000000e+00 0.000000000000000e+00 0.000000000000000e+00
0.000000000000000e+00 0.000000000000000e+00 0.000000000000000e+00
1.162364195988494e-01 6.754408087672708e-04 3.867344319158986e-04
0.000000000000000e+00 0.000000000000000e+00 0.000000000000000e+00
1.059776937853397e-01 9.100398657214343e-04 -6.461814177899739e-03
0.000000000000000e+00 0.000000000000000e+00 0.000000000000000e+00
1.007190348110787e-01 1.444809877431552e-03 1.706852629543261e-02
0.000000000000000e+00 0.000000000000000e+00 0.000000000000000e+00
1.008270100603665e-01 2.357660137617735e-05 1.498795964803714e-02
0.000000000000000e+00 0.000000000000000e+00 0.000000000000000e+00
9.174159777394002e-02 3.139479298805856e-03 3.600207382509185e-02
0.000000000000000e+00 0.000000000000000e+00 0.000000000000000e+00
9.787383915074867e-02 -2.878473260708808e-03 1.331924989097260e-02
0.000000000000000e+00 0.000000000000000e+00 0.000000000000000e+00
        </DataArray>
        <DataArray type="Float64" Name="force_solid" NumberOfComponents="3" format="ascii">
0.000000000000000e+00 0.000000000000000e+00 0.000000000000000e+00
0.000000000000000e+00 0.000000000000000e+00 0.000000000000000e+00
-5.701073916921747e-02 -3.422337979313694e-04 2.110744108229402e-04
0.000000000000000e+00 0.000000000000000e+00 0.000000000000000e+00
0.000000000000000e+00 0.000000000000000e+00 0.000000000000000e+00
-5.702893235523412e-02 -3.420467312617137e-04 3.109235892254092e-04
-5.298859509423900e-02 -4.711998936209418e-04 2.570431244701744e-03
0.000000000000000e+00 0.000000000000000e+00 0.000000000000000e+00
0.000000000000000e+00 0.000000000000000e+00 0.000000000000000e+00
-5.302375544109376e-02 -4.708384472759118e-04 2.726223557038328e-03
-5.024742207158966e-02 -6.714464156733525e-04 -7.911731048683304e-03
0.000000000000000e+00 0.000000000000000e+00 0.000000000000000e+00
0.000000000000000e+00 0.000000000000000e+00 0.000000000000000e+00
-5.030804681977630e-02 -6.708562484209239e-04 -7.687412190224547e-03
-5.007409781185205e-02 -1.334933931237098e-04 -8.064611045144471e-03
0.000000000000000e+00 0.000000000000000e+00 0.000000000000000e+00
0.000000000000000e+00 0.000000000000000e+00 0.000000000000000e+00
-5.008020207991304e-02 -1.334328955352294e-04 -8.043780855310793e-03
-4.622327342616286e-02 -1.310594007872185e-03 -1.687857369872906e-02
0.000000000000000e+00 0.000000000000000e+00 0.000000000000000e+00
0.000000000000000e+00 0.000000000000000e+00 0.000000000000000e+00
-4.637625440760283e-02 -1.309171705372214e-03 -1.641423506543746e-02
-4.800337809638571e-02 8.571155164601863e-04 -8.375967649895830e-03
0.000000000000000e+00 0.000000000000000e+00 0.000000000000000e+00
0.000000000000000e+00 0.000000000000000e+00 0.000000000000000e+00
-4.788389837039456e-02 8.560590153563967e-04 -8.715599119741112e-03
0.000000000000000e+00 0.000000000000000e+00 0.000000000000000e+00
0.000000000000000e+00 0.000000000000000e+00 0.000000000000000e+00
0.000000000000000e+00 0.000000000000000e+00 0.000000000000000e+00
0.000000000000000e+00 0.000000000000000e+00 0.000000000000000e+00
0.000000000000000e+00 0.000000000000000e+00 0.000000000000000e+00
0.000000000000000e+00 0.000000000000000e+00 0.000000000000000e+00
0.000000000000000e+00 0.000000000000000e+00 0.000000000000000e+00
0.000000000000000e+00 0.000000000000000e+00 0.000000000000000e+00
0.000000000000000e+00 0.000000000000000e+00 0.000000000000000e+00
0.000000000000000e+00 0.000000000000000e+00 0.000000000000000e+00
0.000000000000000e+00 0.000000000000000e+00 0.000000000000000e+00
0.000000000000000e+00 0.000000000000000e+00 0.000000000000000e+00
        </DataArray>
      </PointData>

    </Piece>
  </UnstructuredGrid>
</VTKFile>
